       N       E                     dE             d eps       ncg     rms          rms(c)
DAV:   1     0.672415570639E+03    0.67242E+03   -0.99585E+04  4704   0.111E+03
DAV:   2    -0.459816072065E+03   -0.11322E+04   -0.10724E+04  5824   0.221E+02
DAV:   3    -0.535238707579E+03   -0.75423E+02   -0.74696E+02  5680   0.563E+01
DAV:   4    -0.536921590944E+03   -0.16829E+01   -0.16757E+01  5704   0.909E+00
DAV:   5    -0.536967720791E+03   -0.46130E-01   -0.46044E-01  5600   0.144E+00    0.496E+01
DAV:   6    -0.479408904667E+03    0.57559E+02   -0.19217E+02  5360   0.237E+01    0.220E+01
DAV:   7    -0.478119084169E+03    0.12898E+01   -0.16550E+01  5816   0.731E+00    0.985E+00
DAV:   8    -0.477882409500E+03    0.23667E+00   -0.11011E+00  5432   0.209E+00    0.290E+00
DAV:   9    -0.477864447343E+03    0.17962E-01   -0.17825E-01  5480   0.953E-01    0.507E-01
DAV:  10    -0.477866687023E+03   -0.22397E-02   -0.21092E-02  5664   0.338E-01    0.291E-01
DAV:  11    -0.477867961463E+03   -0.12744E-02   -0.33772E-03  5432   0.146E-01    0.138E-01
DAV:  12    -0.477868292463E+03   -0.33100E-03   -0.70679E-04  5192   0.665E-02    0.455E-02
DAV:  13    -0.477868320257E+03   -0.27793E-04   -0.14855E-04  5760   0.277E-02    0.122E-02
DAV:  14    -0.477868321910E+03   -0.16538E-05   -0.78664E-06  5840   0.736E-03    0.672E-03
DAV:  15    -0.477868323985E+03   -0.20744E-05   -0.40083E-06  5408   0.435E-03    0.314E-03
DAV:  16    -0.477868325053E+03   -0.10683E-05   -0.30284E-07  5416   0.139E-03    0.112E-03
DAV:  17    -0.477868325330E+03   -0.27739E-06   -0.80455E-08  5320   0.664E-04    0.707E-04
DAV:  18    -0.477868325342E+03   -0.11260E-07   -0.55376E-09  2800   0.211E-04    0.217E-04
DAV:  19    -0.477868325342E+03    0.00000E+00   -0.41552E-09  2736   0.176E-04
   1 F= -.47786833E+03 E0= -.47787264E+03  d E =0.129313E-01
