<?xml version="1.0" encoding="ISO-8859-1"?>
<modeling>
 <generator>
  <i name="program" type="string">vasp </i>
  <i name="version" type="string">6.2.1  </i>
  <i name="subversion" type="string">16May21 (build Jun 06 2020 10:27:25) complex                          parallel </i>
  <i name="platform" type="string">LinuxIFC </i>
  <i name="date" type="string">2024 01 25 </i>
  <i name="time" type="string">16:49:59 </i>
 </generator>
 <incar>
  <i type="int" name="NELM">    60</i>
  <i type="int" name="IBRION">     1</i>
  <i name="EDIFF">      0.00000001</i>
  <i type="int" name="NSW">     0</i>
  <i type="int" name="ISIF">     3</i>
  <i type="int" name="ISYM">     0</i>
  <i type="logical" name="LWAVE"> F  </i>
  <i type="logical" name="LCHARG"> F  </i>
  <i type="string" name="GGA">PE</i>
 </incar>
 <primitive_cell>
  <structure name="primitive_cell" >
   <crystal>
    <varray name="basis" >
     <v>       8.74331558       0.00000000       0.00000000 </v>
     <v>       0.00000000       8.74331558       0.00000000 </v>
     <v>       0.00000000       0.00000000       8.74331558 </v>
    </varray>
    <i name="volume">    668.38771987 </i>
    <varray name="rec_basis" >
     <v>       0.11437309       0.00000000       0.00000000 </v>
     <v>       0.00000000       0.11437309       0.00000000 </v>
     <v>       0.00000000       0.00000000       0.11437309 </v>
    </varray>
   </crystal>
   <varray name="positions" >
    <v>       0.12601717       0.12703114       0.12502363 </v>
    <v>       0.12345939       0.37866564       0.37814261 </v>
    <v>       0.37444686       0.12290569       0.37514547 </v>
    <v>       0.37607847       0.38127636       0.12394651 </v>
    <v>       0.12755637       0.12493943       0.62113371 </v>
    <v>       0.12688743       0.36623850       0.87716815 </v>
    <v>       0.37099603       0.12095424       0.87307494 </v>
    <v>       0.37054491       0.37477504       0.62683749 </v>
    <v>       0.11089577       0.61969255       0.12237089 </v>
    <v>       0.12610259       0.88043590       0.37262611 </v>
    <v>       0.37179748       0.62380518       0.37861882 </v>
    <v>       0.37599035       0.87183519       0.12163491 </v>
    <v>       0.12517250       0.61728794       0.62591189 </v>
    <v>       0.12852646       0.87389532       0.87760238 </v>
    <v>       0.37838567       0.63105598       0.87321117 </v>
    <v>       0.37002779       0.87493113       0.62678018 </v>
    <v>       0.62595276       0.12542202       0.12436208 </v>
    <v>       0.62504349       0.37138864       0.37959150 </v>
    <v>       0.87370371       0.12630219       0.37502955 </v>
    <v>       0.88447950       0.37281941       0.12589598 </v>
    <v>       0.61305529       0.13173957       0.61622847 </v>
    <v>       0.62093659       0.37715980       0.86931560 </v>
    <v>       0.87773802       0.11979567       0.86428044 </v>
    <v>       0.87271532       0.37690757       0.62677989 </v>
    <v>       0.62920782       0.62600916       0.13302774 </v>
    <v>       0.62400237       0.87552374       0.37711601 </v>
    <v>       0.87557547       0.61832172       0.36942018 </v>
    <v>       0.87528274       0.87900935       0.12138326 </v>
    <v>       0.62747396       0.62635454       0.63570064 </v>
    <v>       0.63007434       0.87457491       0.87995458 </v>
    <v>       0.86908508       0.62251714       0.88602181 </v>
    <v>       0.87562444       0.87517611       0.62876815 </v>
    <v>       0.99911779       0.99981084       0.99918604 </v>
    <v>       0.00649900       0.24298387       0.25296899 </v>
    <v>       0.24847161       0.99832561       0.25047406 </v>
    <v>       0.25279852       0.25230098       0.00105470 </v>
    <v>       0.00257635       0.99297793       0.50345509 </v>
    <v>       0.00314712       0.25602428       0.74823886 </v>
    <v>       0.23799936       0.99812823       0.75184370 </v>
    <v>       0.25076490       0.25043830       0.50185233 </v>
    <v>       0.00659723       0.49765809       0.99849046 </v>
    <v>       0.99871448       0.74673145       0.25669722 </v>
    <v>       0.25144783       0.49902449       0.24448882 </v>
    <v>       0.24264560       0.75529411       0.99555216 </v>
    <v>       0.99283418       0.51267292       0.50279158 </v>
    <v>       0.00838900       0.75327378       0.75275916 </v>
    <v>       0.25525954       0.50189990       0.74463086 </v>
    <v>       0.24624286       0.75240601       0.49896694 </v>
    <v>       0.49826995       0.99622273       0.99687831 </v>
    <v>       0.50602711       0.24987252       0.24483625 </v>
    <v>       0.74442821       0.00702146       0.25495018 </v>
    <v>       0.75415279       0.24782763       0.00065027 </v>
    <v>       0.49689301       0.99727482       0.50642688 </v>
    <v>       0.50091874       0.24535732       0.75299696 </v>
    <v>       0.74101236       0.99448175       0.74277790 </v>
    <v>       0.74914841       0.24604293       0.50389597 </v>
    <v>       0.49752817       0.49124355       0.00022141 </v>
    <v>       0.50619627       0.75859191       0.24968096 </v>
    <v>       0.75084218       0.49659658       0.24819832 </v>
    <v>       0.74483769       0.76466385       0.99875879 </v>
    <v>       0.48643607       0.48262780       0.49307813 </v>
    <v>       0.49218680       0.74839752       0.75695211 </v>
    <v>       0.74470794       0.50387614       0.74828838 </v>
    <v>       0.74547398       0.75633203       0.50091842 </v>
   </varray>
  </structure>
  <varray name="primitive_index" >
   <v type="int" >        1 </v>
   <v type="int" >        2 </v>
   <v type="int" >        3 </v>
   <v type="int" >        4 </v>
   <v type="int" >        5 </v>
   <v type="int" >        6 </v>
   <v type="int" >        7 </v>
   <v type="int" >        8 </v>
   <v type="int" >        9 </v>
   <v type="int" >       10 </v>
   <v type="int" >       11 </v>
   <v type="int" >       12 </v>
   <v type="int" >       13 </v>
   <v type="int" >       14 </v>
   <v type="int" >       15 </v>
   <v type="int" >       16 </v>
   <v type="int" >       17 </v>
   <v type="int" >       18 </v>
   <v type="int" >       19 </v>
   <v type="int" >       20 </v>
   <v type="int" >       21 </v>
   <v type="int" >       22 </v>
   <v type="int" >       23 </v>
   <v type="int" >       24 </v>
   <v type="int" >       25 </v>
   <v type="int" >       26 </v>
   <v type="int" >       27 </v>
   <v type="int" >       28 </v>
   <v type="int" >       29 </v>
   <v type="int" >       30 </v>
   <v type="int" >       31 </v>
   <v type="int" >       32 </v>
   <v type="int" >       33 </v>
   <v type="int" >       34 </v>
   <v type="int" >       35 </v>
   <v type="int" >       36 </v>
   <v type="int" >       37 </v>
   <v type="int" >       38 </v>
   <v type="int" >       39 </v>
   <v type="int" >       40 </v>
   <v type="int" >       41 </v>
   <v type="int" >       42 </v>
   <v type="int" >       43 </v>
   <v type="int" >       44 </v>
   <v type="int" >       45 </v>
   <v type="int" >       46 </v>
   <v type="int" >       47 </v>
   <v type="int" >       48 </v>
   <v type="int" >       49 </v>
   <v type="int" >       50 </v>
   <v type="int" >       51 </v>
   <v type="int" >       52 </v>
   <v type="int" >       53 </v>
   <v type="int" >       54 </v>
   <v type="int" >       55 </v>
   <v type="int" >       56 </v>
   <v type="int" >       57 </v>
   <v type="int" >       58 </v>
   <v type="int" >       59 </v>
   <v type="int" >       60 </v>
   <v type="int" >       61 </v>
   <v type="int" >       62 </v>
   <v type="int" >       63 </v>
   <v type="int" >       64 </v>
  </varray>
 </primitive_cell>
 <kpoints>
  <generation param="Monkhorst-Pack">
   <v type="int" name="divisions">       3        3        3 </v>
   <v name="usershift">      0.00000000       0.00000000       0.00000000 </v>
   <v name="genvec1">      0.33333333       0.00000000       0.00000000 </v>
   <v name="genvec2">      0.00000000       0.33333333       0.00000000 </v>
   <v name="genvec3">      0.00000000       0.00000000       0.33333333 </v>
   <v name="shift">      0.00000000       0.00000000       0.00000000 </v>
  </generation>
  <varray name="kpointlist" >
   <v>       0.00000000       0.00000000       0.00000000 </v>
   <v>       0.33333333       0.00000000       0.00000000 </v>
   <v>       0.00000000       0.33333333       0.00000000 </v>
   <v>       0.00000000       0.00000000       0.33333333 </v>
   <v>       0.33333333       0.33333333       0.00000000 </v>
   <v>       0.00000000       0.33333333       0.33333333 </v>
   <v>       0.33333333       0.00000000       0.33333333 </v>
   <v>      -0.33333333       0.33333333       0.00000000 </v>
   <v>      -0.33333333       0.00000000       0.33333333 </v>
   <v>       0.00000000      -0.33333333       0.33333333 </v>
   <v>       0.33333333       0.33333333       0.33333333 </v>
   <v>      -0.33333333       0.33333333       0.33333333 </v>
   <v>      -0.33333333      -0.33333333       0.33333333 </v>
   <v>       0.33333333      -0.33333333       0.33333333 </v>
  </varray>
  <varray name="weights" >
   <v>       0.03703704 </v>
   <v>       0.07407407 </v>
   <v>       0.07407407 </v>
   <v>       0.07407407 </v>
   <v>       0.07407407 </v>
   <v>       0.07407407 </v>
   <v>       0.07407407 </v>
   <v>       0.07407407 </v>
   <v>       0.07407407 </v>
   <v>       0.07407407 </v>
   <v>       0.07407407 </v>
   <v>       0.07407407 </v>
   <v>       0.07407407 </v>
   <v>       0.07407407 </v>
  </varray>
 </kpoints>
 <parameters>
  <separator name="general" >
   <i type="string" name="SYSTEM">unknown system</i>
   <i type="logical" name="LCOMPAT"> F  </i>
  </separator>
  <separator name="electronic" >
   <i type="string" name="PREC">normal</i>
   <i name="ENMAX">    400.00000000</i>
   <i name="ENAUG">    644.87300000</i>
   <i name="EDIFF">      0.00000001</i>
   <i type="int" name="IALGO">    38</i>
   <i type="int" name="IWAVPR">    10</i>
   <i type="int" name="NBANDS">   168</i>
   <i type="int" name="NBANDSLOW">    -1</i>
   <i type="int" name="NBANDSHIGH">    -1</i>
   <i name="NELECT">    256.00000000</i>
   <i type="int" name="TURBO">     0</i>
   <i type="int" name="IRESTART">     0</i>
   <i type="int" name="NREBOOT">     0</i>
   <i type="int" name="NMIN">     0</i>
   <i name="EREF">      0.00000000</i>
   <separator name="electronic smearing" >
    <i type="int" name="ISMEAR">     1</i>
    <i name="SIGMA">      0.20000000</i>
    <i name="KSPACING">      0.50000000</i>
    <i type="logical" name="KGAMMA"> T  </i>
    <i type="logical" name="KBLOWUP"> T  </i>
   </separator>
   <separator name="electronic projectors" >
    <i type="logical" name="LREAL"> F  </i>
    <v name="ROPT">      0.00000000      0.00000000</v>
    <i type="int" name="LMAXPAW">  -100</i>
    <i type="int" name="LMAXMIX">     2</i>
    <i type="logical" name="NLSPLINE"> F  </i>
   </separator>
   <separator name="electronic startup" >
    <i type="int" name="ISTART">     0</i>
    <i type="int" name="ICHARG">     2</i>
    <i type="int" name="INIWAV">     1</i>
   </separator>
   <separator name="electronic spin" >
    <i type="int" name="ISPIN">     1</i>
    <i type="logical" name="LNONCOLLINEAR"> F  </i>
    <v name="MAGMOM">      1.00000000      1.00000000      1.00000000      1.00000000      1.00000000      1.00000000      1.00000000      1.00000000      1.00000000      1.00000000      1.00000000      1.00000000      1.00000000      1.00000000      1.00000000      1.00000000      1.00000000      1.00000000      1.00000000      1.00000000
      1.00000000      1.00000000      1.00000000      1.00000000      1.00000000      1.00000000      1.00000000      1.00000000      1.00000000      1.00000000      1.00000000      1.00000000      1.00000000      1.00000000      1.00000000      1.00000000      1.00000000      1.00000000      1.00000000      1.00000000
      1.00000000      1.00000000      1.00000000      1.00000000      1.00000000      1.00000000      1.00000000      1.00000000      1.00000000      1.00000000      1.00000000      1.00000000      1.00000000      1.00000000      1.00000000      1.00000000      1.00000000      1.00000000      1.00000000      1.00000000
      1.00000000      1.00000000      1.00000000      1.00000000</v>
    <i name="NUPDOWN">     -1.00000000</i>
    <i type="logical" name="LSORBIT"> F  </i>
    <v name="SAXIS">      0.00000000      0.00000000      1.00000000</v>
    <i type="logical" name="LSPIRAL"> F  </i>
    <v name="QSPIRAL">      0.00000000      0.00000000      0.00000000</v>
    <i type="logical" name="LZEROZ"> F  </i>
   </separator>
   <separator name="electronic exchange-correlation" >
    <i type="logical" name="LASPH"> F  </i>
    <i type="logical" name="LMETAGGA"> F  </i>
   </separator>
   <separator name="electronic convergence" >
    <i type="int" name="NELM">    60</i>
    <i type="int" name="NELMDL">    -5</i>
    <i type="int" name="NELMIN">     2</i>
    <i name="ENINI">    400.00000000</i>
    <separator name="electronic convergence detail" >
     <i type="logical" name="LDIAG"> T  </i>
     <i type="logical" name="LSUBROT"> F  </i>
     <i name="WEIMIN">      0.00000000</i>
     <i name="EBREAK">      0.00000000</i>
     <i name="DEPER">      0.30000000</i>
     <i type="int" name="NRMM">     4</i>
     <i name="TIME">      0.40000000</i>
    </separator>
   </separator>
   <separator name="electronic mixer" >
    <i name="AMIX">      0.40000000</i>
    <i name="BMIX">      1.00000000</i>
    <i name="AMIN">      0.10000000</i>
    <i name="AMIX_MAG">      1.60000000</i>
    <i name="BMIX_MAG">      1.00000000</i>
    <separator name="electronic mixer details" >
     <i type="int" name="IMIX">     4</i>
     <i type="logical" name="MIXFIRST"> F  </i>
     <i type="int" name="MAXMIX">   -45</i>
     <i name="WC">    100.00000000</i>
     <i type="int" name="INIMIX">     1</i>
     <i type="int" name="MIXPRE">     1</i>
     <i type="int" name="MREMOVE">     5</i>
    </separator>
   </separator>
   <separator name="electronic dipolcorrection" >
    <i type="logical" name="LDIPOL"> F  </i>
    <i type="logical" name="LMONO"> F  </i>
    <i type="int" name="IDIPOL">     0</i>
    <i name="EPSILON">      1.00000000</i>
    <v name="DIPOL">   -100.00000000   -100.00000000   -100.00000000</v>
    <i name="EFIELD">      0.00000000</i>
   </separator>
  </separator>
  <separator name="grids" >
   <i type="int" name="NGX">    48</i>
   <i type="int" name="NGY">    48</i>
   <i type="int" name="NGZ">    48</i>
   <i type="int" name="NGXF">    96</i>
   <i type="int" name="NGYF">    96</i>
   <i type="int" name="NGZF">    96</i>
   <i type="logical" name="ADDGRID"> F  </i>
  </separator>
  <separator name="ionic" >
   <i type="int" name="NSW">     0</i>
   <i type="int" name="IBRION">    -1</i>
   <i type="int" name="MDALGO">     0</i>
   <i type="int" name="ISIF">     3</i>
   <i name="PSTRESS">      0.00000000</i>
   <i name="EDIFFG">      0.00000010</i>
   <i type="int" name="NFREE">     0</i>
   <i name="POTIM">      0.50000000</i>
   <i name="SMASS">     -3.00000000</i>
   <i name="SCALEE">      1.00000000</i>
  </separator>
  <separator name="ionic md" >
   <i name="TEBEG">      0.00010000</i>
   <i name="TEEND">      0.00010000</i>
   <i type="int" name="NBLOCK">     1</i>
   <i type="int" name="KBLOCK">     1</i>
   <i type="int" name="NPACO">   256</i>
   <i name="APACO">     16.00000000</i>
  </separator>
  <separator name="symmetry" >
   <i type="int" name="ISYM">     0</i>
   <i name="SYMPREC">      0.00001000</i>
  </separator>
  <separator name="dos" >
   <i type="int" name="LORBIT">     0</i>
   <v name="RWIGS">     -1.00000000     -1.00000000</v>
   <i type="int" name="NEDOS">   301</i>
   <i name="EMIN">     10.00000000</i>
   <i name="EMAX">    -10.00000000</i>
   <i name="EFERMI">      0.00000000</i>
  </separator>
  <separator name="writing" >
   <i type="int" name="NWRITE">     2</i>
   <i type="logical" name="LWAVE"> F  </i>
   <i type="logical" name="LDOWNSAMPLE"> F  </i>
   <i type="logical" name="LCHARG"> F  </i>
   <i type="logical" name="LPARD"> F  </i>
   <i type="logical" name="LVTOT"> F  </i>
   <i type="logical" name="LVHAR"> F  </i>
   <i type="logical" name="LELF"> F  </i>
   <i type="logical" name="LOPTICS"> F  </i>
   <v name="STM">      0.00000000      0.00000000      0.00000000      0.00000000      0.00000000      0.00000000      0.00000000</v>
  </separator>
  <separator name="performance" >
   <i type="int" name="NPAR">     8</i>
   <i type="int" name="NSIM">     4</i>
   <i type="int" name="NBLK">    -1</i>
   <i type="logical" name="LPLANE"> T  </i>
   <i type="logical" name="LSCALAPACK"> T  </i>
   <i type="logical" name="LSCAAWARE"> F  </i>
   <i type="logical" name="LSCALU"> F  </i>
   <i type="logical" name="LASYNC"> F  </i>
   <i type="logical" name="LORBITALREAL"> F  </i>
  </separator>
  <separator name="miscellaneous" >
   <i type="int" name="IDIOT">     3</i>
   <i type="int" name="PHON_NSTRUCT">    -1</i>
   <i type="logical" name="LMUSIC"> F  </i>
   <v name="POMASS">     12.01100000     28.08500000</v>
   <v name="DARWINR">      0.00000000      0.00000000</v>
   <v name="DARWINV">      1.00000000      1.00000000</v>
   <i type="logical" name="LCORR"> T  </i>
  </separator>
  <i type="logical" name="GGA_COMPAT"> T  </i>
  <i type="logical" name="LBERRY"> F  </i>
  <i type="int" name="ICORELEVEL">     0</i>
  <i type="logical" name="LDAU"> F  </i>
  <i type="int" name="I_CONSTRAINED_M">     0</i>
  <separator name="electronic exchange-correlation" >
   <i type="string" name="GGA">PE</i>
   <i type="int" name="VOSKOWN">     0</i>
   <i type="logical" name="LHFCALC"> F  </i>
   <i type="string" name="PRECFOCK"></i>
   <i type="logical" name="LSYMGRAD"> F  </i>
   <i type="logical" name="LHFONE"> F  </i>
   <i type="logical" name="LRHFCALC"> F  </i>
   <i type="logical" name="LTHOMAS"> F  </i>
   <i type="logical" name="LMODELHF"> F  </i>
   <i type="logical" name="LFOCKACE"> F  </i>
   <i name="ENCUT4O">     -1.00000000</i>
   <i type="int" name="EXXOEP">     0</i>
   <i type="int" name="FOURORBIT">     0</i>
   <i name="AEXX">      0.00000000</i>
   <i name="HFALPHA">      0.00000000</i>
   <i name="MCALPHA">      0.00000000</i>
   <i name="ALDAX">      1.00000000</i>
   <i name="AGGAX">      1.00000000</i>
   <i name="ALDAC">      1.00000000</i>
   <i name="AGGAC">      1.00000000</i>
   <i type="int" name="NKREDX">     1</i>
   <i type="int" name="NKREDY">     1</i>
   <i type="int" name="NKREDZ">     1</i>
   <i type="logical" name="SHIFTRED"> F  </i>
   <i type="logical" name="ODDONLY"> F  </i>
   <i type="logical" name="EVENONLY"> F  </i>
   <i type="int" name="LMAXFOCK">     0</i>
   <i type="int" name="NMAXFOCKAE">     0</i>
   <i type="logical" name="LFOCKAEDFT"> F  </i>
   <i name="HFSCREEN">      0.00000000</i>
   <i name="HFSCREENC">      0.00000000</i>
   <i type="int" name="NBANDSGWLOW">     0</i>
  </separator>
  <separator name="vdW DFT" >
   <i type="logical" name="LUSE_VDW"> F  </i>
   <i name="Zab_VDW">     -0.84910000</i>
   <i name="PARAM1">      0.12340000</i>
   <i name="PARAM2">      1.00000000</i>
   <i name="PARAM3">      0.00000000</i>
  </separator>
  <separator name="model GW" >
   <i type="int" name="MODEL_GW">     0</i>
   <i name="MODEL_EPS0">      6.26613487</i>
   <i name="MODEL_ALPHA">      1.00000000</i>
  </separator>
  <separator name="linear response parameters" >
   <i type="logical" name="LEPSILON"> F  </i>
   <i type="logical" name="LRPA"> F  </i>
   <i type="logical" name="LNABLA"> F  </i>
   <i type="logical" name="LVEL"> F  </i>
   <i type="int" name="KINTER">     0</i>
   <i name="CSHIFT">      0.10000000</i>
   <i name="OMEGAMAX">     -1.00000000</i>
   <i name="DEG_THRESHOLD">      0.00200000</i>
   <i name="RTIME">     -0.10000000</i>
   <i name="WPLASMAI">      0.00000000</i>
   <v name="DFIELD">      0.00000000      0.00000000      0.00000000</v>
   <v name="WPLASMA">      0.00000000      0.00000000      0.00000000      0.00000000      0.00000000      0.00000000      0.00000000      0.00000000      0.00000000</v>
  </separator>
  <separator name="orbital magnetization" >
   <i type="logical" name="NUCIND"> F  </i>
   <v name="MAGPOS">      0.00000000      0.00000000      0.00000000</v>
   <i type="logical" name="LNICSALL"> T  </i>
   <i type="logical" name="ORBITALMAG"> F  </i>
   <i type="logical" name="LMAGBLOCH"> F  </i>
   <i type="logical" name="LCHIMAG"> F  </i>
   <i type="logical" name="LGAUGE"> T  </i>
   <i type="int" name="MAGATOM">     0</i>
   <v name="MAGDIPOL">      0.00000000      0.00000000      0.00000000</v>
   <v name="AVECCONST">      0.00000000      0.00000000      0.00000000</v>
  </separator>
  <separator name="response functions" >
   <i type="logical" name="LFINITE_TEMPERATURE"> F  </i>
   <i type="logical" name="LADDER"> F  </i>
   <i type="logical" name="LRPAFORCE"> F  </i>
   <i type="logical" name="LFXC"> F  </i>
   <i type="logical" name="LHARTREE"> T  </i>
   <i type="int" name="IBSE">     0</i>
   <v type="int" name="KPOINT">    -1     0     0     0</v>
   <i type="logical" name="LTCTC"> F  </i>
   <i type="logical" name="LTCTE"> F  </i>
   <i type="logical" name="LTETE"> F  </i>
   <i type="logical" name="LTRIPLET"> F  </i>
   <i type="logical" name="LFXCEPS"> F  </i>
   <i type="logical" name="LFXHEG"> F  </i>
   <i type="int" name="NATURALO">     2</i>
   <i type="logical" name="LHOLEGF"> F  </i>
   <i type="logical" name="L2ORDER"> F  </i>
   <i type="logical" name="LDMP1"> F  </i>
   <i type="logical" name="LMP2LT"> F  </i>
   <i type="logical" name="LSMP2LT"> F  </i>
   <i type="logical" name="LGWLF"> F  </i>
   <i name="ENCUTGW">     -2.00000000</i>
   <i name="ENCUTGWSOFT">     -2.00000000</i>
   <i name="ENCUTLF">     -1.00000000</i>
   <i type="logical" name="LESF_SPLINES"> F  </i>
   <i type="int" name="LMAXMP2">    -1</i>
   <i name="SCISSOR">      0.00000000</i>
   <i type="int" name="NOMEGA">     0</i>
   <i type="int" name="NOMEGAR">     0</i>
   <i type="int" name="NBANDSGW">    -1</i>
   <i type="int" name="NBANDSO">    -1</i>
   <i type="int" name="NBANDSV">    -1</i>
   <i type="int" name="NELM">    60</i>
   <i type="int" name="NELMHF">     1</i>
   <i type="int" name="DIM">     3</i>
   <i type="int" name="IESPILON">     4</i>
   <i type="int" name="ANTIRES">     0</i>
   <i name="OMEGAMAX">    -30.00000000</i>
   <i name="OMEGAMIN">    -30.00000000</i>
   <i name="OMEGATL">   -200.00000000</i>
   <i type="int" name="OMEGAGRID">     0</i>
   <i name="CSHIFT">     -0.10000000</i>
   <i type="logical" name="LSELFENERGY"> F  </i>
   <i type="logical" name="LSPECTRAL"> F  </i>
   <i type="logical" name="LSPECTRALGW"> F  </i>
   <i type="logical" name="LSINGLES"> F  </i>
   <i type="logical" name="LFERMIGW"> F  </i>
   <i type="logical" name="ODDONLYGW"> F  </i>
   <i type="logical" name="EVENONLYGW"> F  </i>
   <i type="int" name="NKREDLFX">     1</i>
   <i type="int" name="NKREDLFY">     1</i>
   <i type="int" name="NKREDLFZ">     1</i>
   <i type="int" name="MAXMEM">  2800</i>
   <i type="int" name="TELESCOPE">     0</i>
   <i type="int" name="NTAUPAR">    -1</i>
   <i type="int" name="NOMEGAPAR">    -1</i>
   <i name="DAMP_NEWTON">      0.80000001</i>
   <i name="LAMBDA">      1.00000000</i>
  </separator>
  <separator name="External order field" >
   <i name="OFIELD_KAPPA">      0.00000000</i>
   <v name="OFIELD_K">      0.00000000      0.00000000      0.00000000</v>
   <i name="OFIELD_Q6_NEAR">      0.00000000</i>
   <i name="OFIELD_Q6_FAR">      0.00000000</i>
   <i name="OFIELD_A">      0.00000000</i>
  </separator>
 </parameters>
 <atominfo>
  <atoms>      64 </atoms>
  <types>       2 </types>
  <array name="atoms" >
   <dimension dim="1">ion</dimension>
   <field type="string">element</field>
   <field type="int">atomtype</field>
   <set>
    <rc><c>C </c><c>   1</c></rc>
    <rc><c>C </c><c>   1</c></rc>
    <rc><c>C </c><c>   1</c></rc>
    <rc><c>C </c><c>   1</c></rc>
    <rc><c>C </c><c>   1</c></rc>
    <rc><c>C </c><c>   1</c></rc>
    <rc><c>C </c><c>   1</c></rc>
    <rc><c>C </c><c>   1</c></rc>
    <rc><c>C </c><c>   1</c></rc>
    <rc><c>C </c><c>   1</c></rc>
    <rc><c>C </c><c>   1</c></rc>
    <rc><c>C </c><c>   1</c></rc>
    <rc><c>C </c><c>   1</c></rc>
    <rc><c>C </c><c>   1</c></rc>
    <rc><c>C </c><c>   1</c></rc>
    <rc><c>C </c><c>   1</c></rc>
    <rc><c>C </c><c>   1</c></rc>
    <rc><c>C </c><c>   1</c></rc>
    <rc><c>C </c><c>   1</c></rc>
    <rc><c>C </c><c>   1</c></rc>
    <rc><c>C </c><c>   1</c></rc>
    <rc><c>C </c><c>   1</c></rc>
    <rc><c>C </c><c>   1</c></rc>
    <rc><c>C </c><c>   1</c></rc>
    <rc><c>C </c><c>   1</c></rc>
    <rc><c>C </c><c>   1</c></rc>
    <rc><c>C </c><c>   1</c></rc>
    <rc><c>C </c><c>   1</c></rc>
    <rc><c>C </c><c>   1</c></rc>
    <rc><c>C </c><c>   1</c></rc>
    <rc><c>C </c><c>   1</c></rc>
    <rc><c>C </c><c>   1</c></rc>
    <rc><c>Si</c><c>   2</c></rc>
    <rc><c>Si</c><c>   2</c></rc>
    <rc><c>Si</c><c>   2</c></rc>
    <rc><c>Si</c><c>   2</c></rc>
    <rc><c>Si</c><c>   2</c></rc>
    <rc><c>Si</c><c>   2</c></rc>
    <rc><c>Si</c><c>   2</c></rc>
    <rc><c>Si</c><c>   2</c></rc>
    <rc><c>Si</c><c>   2</c></rc>
    <rc><c>Si</c><c>   2</c></rc>
    <rc><c>Si</c><c>   2</c></rc>
    <rc><c>Si</c><c>   2</c></rc>
    <rc><c>Si</c><c>   2</c></rc>
    <rc><c>Si</c><c>   2</c></rc>
    <rc><c>Si</c><c>   2</c></rc>
    <rc><c>Si</c><c>   2</c></rc>
    <rc><c>Si</c><c>   2</c></rc>
    <rc><c>Si</c><c>   2</c></rc>
    <rc><c>Si</c><c>   2</c></rc>
    <rc><c>Si</c><c>   2</c></rc>
    <rc><c>Si</c><c>   2</c></rc>
    <rc><c>Si</c><c>   2</c></rc>
    <rc><c>Si</c><c>   2</c></rc>
    <rc><c>Si</c><c>   2</c></rc>
    <rc><c>Si</c><c>   2</c></rc>
    <rc><c>Si</c><c>   2</c></rc>
    <rc><c>Si</c><c>   2</c></rc>
    <rc><c>Si</c><c>   2</c></rc>
    <rc><c>Si</c><c>   2</c></rc>
    <rc><c>Si</c><c>   2</c></rc>
    <rc><c>Si</c><c>   2</c></rc>
    <rc><c>Si</c><c>   2</c></rc>
   </set>
  </array>
  <array name="atomtypes" >
   <dimension dim="1">type</dimension>
   <field type="int">atomspertype</field>
   <field type="string">element</field>
   <field>mass</field>
   <field>valence</field>
   <field type="string">pseudopotential</field>
   <set>
    <rc><c>  32</c><c>C </c><c>     12.01100000</c><c>      4.00000000</c><c>  PAW_PBE C 08Apr2002                   </c></rc>
    <rc><c>  32</c><c>Si</c><c>     28.08500000</c><c>      4.00000000</c><c>  PAW_PBE Si 05Jan2001                  </c></rc>
   </set>
  </array>
 </atominfo>
 <structure name="initialpos" >
  <crystal>
   <varray name="basis" >
    <v>       8.74331558       0.00000000       0.00000000 </v>
    <v>       0.00000000       8.74331558       0.00000000 </v>
    <v>       0.00000000       0.00000000       8.74331558 </v>
   </varray>
   <i name="volume">    668.38771987 </i>
   <varray name="rec_basis" >
    <v>       0.11437309       0.00000000       0.00000000 </v>
    <v>       0.00000000       0.11437309       0.00000000 </v>
    <v>       0.00000000       0.00000000       0.11437309 </v>
   </varray>
  </crystal>
  <varray name="positions" >
   <v>       0.12601717       0.12703114       0.12502363 </v>
   <v>       0.12345939       0.37866564       0.37814261 </v>
   <v>       0.37444686       0.12290569       0.37514547 </v>
   <v>       0.37607847       0.38127636       0.12394651 </v>
   <v>       0.12755637       0.12493943       0.62113371 </v>
   <v>       0.12688743       0.36623850       0.87716815 </v>
   <v>       0.37099603       0.12095424       0.87307494 </v>
   <v>       0.37054491       0.37477504       0.62683749 </v>
   <v>       0.11089577       0.61969255       0.12237089 </v>
   <v>       0.12610259       0.88043590       0.37262611 </v>
   <v>       0.37179748       0.62380518       0.37861882 </v>
   <v>       0.37599035       0.87183519       0.12163491 </v>
   <v>       0.12517250       0.61728794       0.62591189 </v>
   <v>       0.12852646       0.87389532       0.87760238 </v>
   <v>       0.37838567       0.63105598       0.87321117 </v>
   <v>       0.37002779       0.87493113       0.62678018 </v>
   <v>       0.62595276       0.12542202       0.12436208 </v>
   <v>       0.62504349       0.37138864       0.37959150 </v>
   <v>       0.87370371       0.12630219       0.37502955 </v>
   <v>       0.88447950       0.37281941       0.12589598 </v>
   <v>       0.61305529       0.13173957       0.61622847 </v>
   <v>       0.62093659       0.37715980       0.86931560 </v>
   <v>       0.87773802       0.11979567       0.86428044 </v>
   <v>       0.87271532       0.37690757       0.62677989 </v>
   <v>       0.62920782       0.62600916       0.13302774 </v>
   <v>       0.62400237       0.87552374       0.37711601 </v>
   <v>       0.87557547       0.61832172       0.36942018 </v>
   <v>       0.87528274       0.87900935       0.12138326 </v>
   <v>       0.62747396       0.62635454       0.63570064 </v>
   <v>       0.63007434       0.87457491       0.87995458 </v>
   <v>       0.86908508       0.62251714       0.88602181 </v>
   <v>       0.87562444       0.87517611       0.62876815 </v>
   <v>       0.99911779       0.99981084       0.99918604 </v>
   <v>       0.00649900       0.24298387       0.25296899 </v>
   <v>       0.24847161       0.99832561       0.25047406 </v>
   <v>       0.25279852       0.25230098       0.00105470 </v>
   <v>       0.00257635       0.99297793       0.50345509 </v>
   <v>       0.00314712       0.25602428       0.74823886 </v>
   <v>       0.23799936       0.99812823       0.75184370 </v>
   <v>       0.25076490       0.25043830       0.50185233 </v>
   <v>       0.00659723       0.49765809       0.99849046 </v>
   <v>       0.99871448       0.74673145       0.25669722 </v>
   <v>       0.25144783       0.49902449       0.24448882 </v>
   <v>       0.24264560       0.75529411       0.99555216 </v>
   <v>       0.99283418       0.51267292       0.50279158 </v>
   <v>       0.00838900       0.75327378       0.75275916 </v>
   <v>       0.25525954       0.50189990       0.74463086 </v>
   <v>       0.24624286       0.75240601       0.49896694 </v>
   <v>       0.49826995       0.99622273       0.99687831 </v>
   <v>       0.50602711       0.24987252       0.24483625 </v>
   <v>       0.74442821       0.00702146       0.25495018 </v>
   <v>       0.75415279       0.24782763       0.00065027 </v>
   <v>       0.49689301       0.99727482       0.50642688 </v>
   <v>       0.50091874       0.24535732       0.75299696 </v>
   <v>       0.74101236       0.99448175       0.74277790 </v>
   <v>       0.74914841       0.24604293       0.50389597 </v>
   <v>       0.49752817       0.49124355       0.00022141 </v>
   <v>       0.50619627       0.75859191       0.24968096 </v>
   <v>       0.75084218       0.49659658       0.24819832 </v>
   <v>       0.74483769       0.76466385       0.99875879 </v>
   <v>       0.48643607       0.48262780       0.49307813 </v>
   <v>       0.49218680       0.74839752       0.75695211 </v>
   <v>       0.74470794       0.50387614       0.74828838 </v>
   <v>       0.74547398       0.75633203       0.50091842 </v>
  </varray>
 </structure>
 <calculation>
  <scstep>
   <time name="dav">   21.44   21.91</time>
   <time name="total">   21.73   22.20</time>
   <energy>
    <i name="alphaZ">    354.85177120 </i>
    <i name="ewald">  -9070.78113130 </i>
    <i name="hartreedc">   -676.63099622 </i>
    <i name="XCdc">    145.93971592 </i>
    <i name="pawpsdc">   6292.66707184 </i>
    <i name="pawaedc">  -5747.90303932 </i>
    <i name="eentropy">      0.00644312 </i>
    <i name="bandstr">   1368.09069220 </i>
    <i name="atom">   8006.17504320 </i>
    <i name="e_fr_energy">    672.41557064 </i>
    <i name="e_wo_entrp">    672.40912752 </i>
    <i name="e_0_energy">    672.41342293 </i>
   </energy>
  </scstep>
  <scstep>
   <time name="dav">   18.27   18.72</time>
   <time name="total">   18.28   18.73</time>
   <energy>
    <i name="e_fr_energy">   -459.81607207 </i>
    <i name="e_wo_entrp">   -459.82733598 </i>
    <i name="e_0_energy">   -459.81982670 </i>
   </energy>
  </scstep>
  <scstep>
   <time name="dav">   16.35   16.40</time>
   <time name="total">   16.36   16.40</time>
   <energy>
    <i name="e_fr_energy">   -535.23870758 </i>
    <i name="e_wo_entrp">   -535.26203270 </i>
    <i name="e_0_energy">   -535.24648262 </i>
   </energy>
  </scstep>
  <scstep>
   <time name="dav">   17.47   17.52</time>
   <time name="total">   17.47   17.52</time>
   <energy>
    <i name="e_fr_energy">   -536.92159094 </i>
    <i name="e_wo_entrp">   -536.94579578 </i>
    <i name="e_0_energy">   -536.92965922 </i>
   </energy>
  </scstep>
  <scstep>
   <time name="dav">   16.12   16.15</time>
   <time name="total">   16.37   16.40</time>
   <energy>
    <i name="e_fr_energy">   -536.96772079 </i>
    <i name="e_wo_entrp">   -536.99192655 </i>
    <i name="e_0_energy">   -536.97578938 </i>
   </energy>
  </scstep>
  <scstep>
   <time name="dav">   19.06   19.09</time>
   <time name="total">   19.41   19.48</time>
   <energy>
    <i name="e_fr_energy">   -479.40890467 </i>
    <i name="e_wo_entrp">   -479.42367655 </i>
    <i name="e_0_energy">   -479.41382863 </i>
   </energy>
  </scstep>
  <scstep>
   <time name="dav">   22.91   23.08</time>
   <time name="total">   23.50   23.72</time>
   <energy>
    <i name="e_fr_energy">   -478.11908417 </i>
    <i name="e_wo_entrp">   -478.13203746 </i>
    <i name="e_0_energy">   -478.12340193 </i>
   </energy>
  </scstep>
  <scstep>
   <time name="dav">   16.26   16.29</time>
   <time name="total">   16.90   16.97</time>
   <energy>
    <i name="e_fr_energy">   -477.88240950 </i>
    <i name="e_wo_entrp">   -477.89532562 </i>
    <i name="e_0_energy">   -477.88671487 </i>
   </energy>
  </scstep>
  <scstep>
   <time name="dav">   15.54   15.57</time>
   <time name="total">   15.91   15.96</time>
   <energy>
    <i name="e_fr_energy">   -477.86444734 </i>
    <i name="e_wo_entrp">   -477.87734396 </i>
    <i name="e_0_energy">   -477.86874622 </i>
   </energy>
  </scstep>
  <scstep>
   <time name="dav">   15.91   15.94</time>
   <time name="total">   16.25   16.28</time>
   <energy>
    <i name="e_fr_energy">   -477.86668702 </i>
    <i name="e_wo_entrp">   -477.87965886 </i>
    <i name="e_0_energy">   -477.87101097 </i>
   </energy>
  </scstep>
  <scstep>
   <time name="dav">   18.33   18.36</time>
   <time name="total">   18.73   18.77</time>
   <energy>
    <i name="e_fr_energy">   -477.86796146 </i>
    <i name="e_wo_entrp">   -477.88089355 </i>
    <i name="e_0_energy">   -477.87227216 </i>
   </energy>
  </scstep>
  <scstep>
   <time name="dav">   15.48   15.51</time>
   <time name="total">   16.08   16.14</time>
   <energy>
    <i name="e_fr_energy">   -477.86829246 </i>
    <i name="e_wo_entrp">   -477.88122256 </i>
    <i name="e_0_energy">   -477.87260250 </i>
   </energy>
  </scstep>
  <scstep>
   <time name="dav">   30.46   30.49</time>
   <time name="total">   31.07   31.15</time>
   <energy>
    <i name="e_fr_energy">   -477.86832026 </i>
    <i name="e_wo_entrp">   -477.88125374 </i>
    <i name="e_0_energy">   -477.87263142 </i>
   </energy>
  </scstep>
  <scstep>
   <time name="dav">   17.47   17.50</time>
   <time name="total">   17.82   17.86</time>
   <energy>
    <i name="e_fr_energy">   -477.86832191 </i>
    <i name="e_wo_entrp">   -477.88125297 </i>
    <i name="e_0_energy">   -477.87263226 </i>
   </energy>
  </scstep>
  <scstep>
   <time name="dav">   17.28   17.45</time>
   <time name="total">   17.82   18.10</time>
   <energy>
    <i name="e_fr_energy">   -477.86832398 </i>
    <i name="e_wo_entrp">   -477.88125529 </i>
    <i name="e_0_energy">   -477.87263442 </i>
   </energy>
  </scstep>
  <scstep>
   <time name="dav">   22.22   22.91</time>
   <time name="total">   22.79   23.70</time>
   <energy>
    <i name="e_fr_energy">   -477.86832505 </i>
    <i name="e_wo_entrp">   -477.88125657 </i>
    <i name="e_0_energy">   -477.87263556 </i>
   </energy>
  </scstep>
  <scstep>
   <time name="dav">   15.05   15.08</time>
   <time name="total">   15.38   15.41</time>
   <energy>
    <i name="e_fr_energy">   -477.86832533 </i>
    <i name="e_wo_entrp">   -477.88125667 </i>
    <i name="e_0_energy">   -477.87263578 </i>
   </energy>
  </scstep>
  <scstep>
   <time name="dav">    9.60    9.62</time>
   <time name="total">    9.96   10.00</time>
   <energy>
    <i name="e_fr_energy">   -477.86832534 </i>
    <i name="e_wo_entrp">   -477.88125663 </i>
    <i name="e_0_energy">   -477.87263577 </i>
   </energy>
  </scstep>
  <scstep>
   <time name="dav">    9.71    9.76</time>
   <time name="total">    9.77    9.85</time>
   <energy>
    <i name="alphaZ">    354.85177120 </i>
    <i name="ewald">  -9070.78113130 </i>
    <i name="hartreedc">  -1029.95580364 </i>
    <i name="XCdc">    179.37264922 </i>
    <i name="pawpsdc">  33298.55351345 </i>
    <i name="pawaedc"> -32759.57933145 </i>
    <i name="eentropy">      0.01293129 </i>
    <i name="bandstr">    543.48203268 </i>
    <i name="atom">   8006.17504320 </i>
    <i name="e_fr_energy">   -477.86832534 </i>
    <i name="e_wo_entrp">   -477.88125663 </i>
    <i name="e_0_energy">   -477.87263577 </i>
   </energy>
  </scstep>
  <structure>
   <crystal>
    <varray name="basis" >
     <v>       8.74331558       0.00000000       0.00000000 </v>
     <v>       0.00000000       8.74331558       0.00000000 </v>
     <v>       0.00000000       0.00000000       8.74331558 </v>
    </varray>
    <i name="volume">    668.38771987 </i>
    <varray name="rec_basis" >
     <v>       0.11437309       0.00000000       0.00000000 </v>
     <v>       0.00000000       0.11437309       0.00000000 </v>
     <v>       0.00000000       0.00000000       0.11437309 </v>
    </varray>
   </crystal>
   <varray name="positions" >
    <v>       0.12601717       0.12703114       0.12502363 </v>
    <v>       0.12345939       0.37866564       0.37814261 </v>
    <v>       0.37444686       0.12290569       0.37514547 </v>
    <v>       0.37607847       0.38127636       0.12394651 </v>
    <v>       0.12755637       0.12493943       0.62113371 </v>
    <v>       0.12688743       0.36623850       0.87716815 </v>
    <v>       0.37099603       0.12095424       0.87307494 </v>
    <v>       0.37054491       0.37477504       0.62683749 </v>
    <v>       0.11089577       0.61969255       0.12237089 </v>
    <v>       0.12610259       0.88043590       0.37262611 </v>
    <v>       0.37179748       0.62380518       0.37861882 </v>
    <v>       0.37599035       0.87183519       0.12163491 </v>
    <v>       0.12517250       0.61728794       0.62591189 </v>
    <v>       0.12852646       0.87389532       0.87760238 </v>
    <v>       0.37838567       0.63105598       0.87321117 </v>
    <v>       0.37002779       0.87493113       0.62678018 </v>
    <v>       0.62595276       0.12542202       0.12436208 </v>
    <v>       0.62504349       0.37138864       0.37959150 </v>
    <v>       0.87370371       0.12630219       0.37502955 </v>
    <v>       0.88447950       0.37281941       0.12589598 </v>
    <v>       0.61305529       0.13173957       0.61622847 </v>
    <v>       0.62093659       0.37715980       0.86931560 </v>
    <v>       0.87773802       0.11979567       0.86428044 </v>
    <v>       0.87271532       0.37690757       0.62677989 </v>
    <v>       0.62920782       0.62600916       0.13302774 </v>
    <v>       0.62400237       0.87552374       0.37711601 </v>
    <v>       0.87557547       0.61832172       0.36942018 </v>
    <v>       0.87528274       0.87900935       0.12138326 </v>
    <v>       0.62747396       0.62635454       0.63570064 </v>
    <v>       0.63007434       0.87457491       0.87995458 </v>
    <v>       0.86908508       0.62251714       0.88602181 </v>
    <v>       0.87562444       0.87517611       0.62876815 </v>
    <v>       0.99911779       0.99981084       0.99918604 </v>
    <v>       0.00649900       0.24298387       0.25296899 </v>
    <v>       0.24847161       0.99832561       0.25047406 </v>
    <v>       0.25279852       0.25230098       0.00105470 </v>
    <v>       0.00257635       0.99297793       0.50345509 </v>
    <v>       0.00314712       0.25602428       0.74823886 </v>
    <v>       0.23799936       0.99812823       0.75184370 </v>
    <v>       0.25076490       0.25043830       0.50185233 </v>
    <v>       0.00659723       0.49765809       0.99849046 </v>
    <v>       0.99871448       0.74673145       0.25669722 </v>
    <v>       0.25144783       0.49902449       0.24448882 </v>
    <v>       0.24264560       0.75529411       0.99555216 </v>
    <v>       0.99283418       0.51267292       0.50279158 </v>
    <v>       0.00838900       0.75327378       0.75275916 </v>
    <v>       0.25525954       0.50189990       0.74463086 </v>
    <v>       0.24624286       0.75240601       0.49896694 </v>
    <v>       0.49826995       0.99622273       0.99687831 </v>
    <v>       0.50602711       0.24987252       0.24483625 </v>
    <v>       0.74442821       0.00702146       0.25495018 </v>
    <v>       0.75415279       0.24782763       0.00065027 </v>
    <v>       0.49689301       0.99727482       0.50642688 </v>
    <v>       0.50091874       0.24535732       0.75299696 </v>
    <v>       0.74101236       0.99448175       0.74277790 </v>
    <v>       0.74914841       0.24604293       0.50389597 </v>
    <v>       0.49752817       0.49124355       0.00022141 </v>
    <v>       0.50619627       0.75859191       0.24968096 </v>
    <v>       0.75084218       0.49659658       0.24819832 </v>
    <v>       0.74483769       0.76466385       0.99875879 </v>
    <v>       0.48643607       0.48262780       0.49307813 </v>
    <v>       0.49218680       0.74839752       0.75695211 </v>
    <v>       0.74470794       0.50387614       0.74828838 </v>
    <v>       0.74547398       0.75633203       0.50091842 </v>
   </varray>
  </structure>
  <varray name="forces" >
   <v>       0.51889994      -0.92998333      -0.33779110 </v>
   <v>       0.35218242      -0.39670685      -0.14766756 </v>
   <v>       0.28402161       0.25702450      -0.39044505 </v>
   <v>      -0.10111445      -1.83313965       0.20852291 </v>
   <v>      -0.89292035      -0.12880900       0.64538118 </v>
   <v>       0.69972312       2.02174041      -0.67202714 </v>
   <v>       0.41827349       0.17883788       0.40105937 </v>
   <v>       0.59728849      -1.30831651       0.27130126 </v>
   <v>       3.20093124       1.77702627       0.81885628 </v>
   <v>      -0.60070332      -1.71726978       0.55341053 </v>
   <v>       0.22912646       0.52905556      -1.12503461 </v>
   <v>      -0.53050935       0.46782889       0.50755784 </v>
   <v>      -0.14139458       2.45024525       0.10772006 </v>
   <v>      -1.47177425       0.99833943      -0.51148386 </v>
   <v>      -2.00693285      -1.92348719       1.51475696 </v>
   <v>      -0.02112191      -0.16034487       0.57196027 </v>
   <v>      -0.47463103      -0.18445228      -0.67620206 </v>
   <v>       0.19468076      -0.08944446      -1.21090176 </v>
   <v>       0.33363368      -0.75052166       0.90361538 </v>
   <v>      -1.15765304      -0.67467328      -0.04906016 </v>
   <v>       1.53031203      -1.76780788       1.67261879 </v>
   <v>       0.53587466      -1.15617379       1.15672598 </v>
   <v>      -0.69338098       0.55643179       0.71184960 </v>
   <v>      -0.00646158       0.22948282      -0.14729815 </v>
   <v>      -0.87085665       0.25011810      -1.52014116 </v>
   <v>       0.00012740       1.13786961       0.35974294 </v>
   <v>      -1.03135160       2.02240615       1.34338967 </v>
   <v>      -0.27548005       0.17819296       1.66048034 </v>
   <v>      -1.82956301       0.82767170      -2.42381237 </v>
   <v>      -2.69415846       1.30232979      -2.17175781 </v>
   <v>       0.95640346       0.72390404      -1.62123611 </v>
   <v>       0.20485425      -0.49581778      -0.80384691 </v>
   <v>      -0.12363214       0.61140659      -0.02298118 </v>
   <v>      -0.87782188       1.67665985       0.25409755 </v>
   <v>       0.93566920       0.82802717      -0.74425873 </v>
   <v>      -0.08702442      -0.89614891       0.07954774 </v>
   <v>      -0.82049794       1.86870410      -0.54980668 </v>
   <v>      -0.73500276      -1.25655558      -0.45420965 </v>
   <v>       2.03867337       0.85799337      -0.72965062 </v>
   <v>      -0.46108761      -0.03297752      -0.87260098 </v>
   <v>      -2.26780907      -0.57135273      -0.50156848 </v>
   <v>      -0.45281495       0.63240867      -1.89947685 </v>
   <v>      -1.28574240       0.91459756       1.28387153 </v>
   <v>       1.48450942      -2.29877541       1.79155393 </v>
   <v>       0.67672481      -2.99027672      -0.37832341 </v>
   <v>      -2.18336300      -1.83045742       0.40728401 </v>
   <v>      -0.66484807      -0.44764613       1.55345255 </v>
   <v>       0.69343039      -0.92813087       0.12361036 </v>
   <v>       0.06857062       0.85429148       0.40770721 </v>
   <v>      -1.16562448      -0.10505787       1.16028390 </v>
   <v>       1.34791821      -0.94452015      -0.77830867 </v>
   <v>       0.39923888       0.39779167      -0.85158164 </v>
   <v>      -0.87171519       0.32861886      -1.47026885 </v>
   <v>      -1.17045225       0.88272692      -0.32111867 </v>
   <v>       1.08473845       1.52063083       0.80097388 </v>
   <v>       0.64898476       1.09426725      -0.62403957 </v>
   <v>       1.25731371       2.80226503      -0.38418766 </v>
   <v>      -1.32780023      -2.42303288       0.22144382 </v>
   <v>       0.29430053      -0.30383729       0.06385562 </v>
   <v>       2.19194184      -3.80549273       1.88965815 </v>
   <v>       1.91476642       2.93573970       1.00843372 </v>
   <v>       2.15521035       0.85712382      -1.75069064 </v>
   <v>       1.42466525      -0.43305589       1.26549622 </v>
   <v>       0.62225466      -2.18749162       0.42155854 </v>
  </varray>
  <varray name="stress" >
   <v>      14.24567050       1.50012196       3.37893105 </v>
   <v>       1.50012188      12.14517790      -5.95092827 </v>
   <v>       3.37893109      -5.95092829      17.30715509 </v>
  </varray>
  <energy>
   <i name="e_fr_energy">   -477.86832534 </i>
   <i name="e_wo_entrp">   -477.88125663 </i>
   <i name="e_0_energy">   -477.87263577 </i>
  </energy>
  <time name="totalsc">  353.58  356.67</time>
  <eigenvalues>
   <array>
    <dimension dim="1">band</dimension>
    <dimension dim="2">kpoint</dimension>
    <dimension dim="3">spin</dimension>
    <field>eigene</field>
    <field>occ</field>
    <set>
     <set comment="spin 1">
      <set comment="kpoint 1">
       <r>   -7.3983    1.0000 </r>
       <r>   -6.0143    1.0000 </r>
       <r>   -5.9393    1.0000 </r>
       <r>   -5.8674    1.0000 </r>
       <r>   -5.8001    1.0000 </r>
       <r>   -5.6546    1.0000 </r>
       <r>   -5.6206    1.0000 </r>
       <r>   -4.7718    1.0000 </r>
       <r>   -4.6444    1.0000 </r>
       <r>   -4.6009    1.0000 </r>
       <r>   -4.5603    1.0000 </r>
       <r>   -4.4623    1.0000 </r>
       <r>   -4.4191    1.0000 </r>
       <r>   -4.3464    1.0000 </r>
       <r>   -4.3313    1.0000 </r>
       <r>   -4.2638    1.0000 </r>
       <r>   -4.1911    1.0000 </r>
       <r>   -4.1543    1.0000 </r>
       <r>   -3.9436    1.0000 </r>
       <r>   -3.8454    1.0000 </r>
       <r>   -3.7957    1.0000 </r>
       <r>   -3.6831    1.0000 </r>
       <r>   -3.6095    1.0000 </r>
       <r>   -2.6179    1.0000 </r>
       <r>   -2.4385    1.0000 </r>
       <r>   -2.3270    1.0000 </r>
       <r>   -2.2784    1.0000 </r>
       <r>   -2.1905    1.0000 </r>
       <r>   -2.1493    1.0000 </r>
       <r>   -2.0592    1.0000 </r>
       <r>   -1.8968    1.0000 </r>
       <r>   -1.8053    1.0000 </r>
       <r>   -0.7080    1.0000 </r>
       <r>   -0.5316    1.0000 </r>
       <r>   -0.4809    1.0000 </r>
       <r>   -0.3595    1.0000 </r>
       <r>    0.1759    1.0000 </r>
       <r>    0.1944    1.0000 </r>
       <r>    0.2049    1.0000 </r>
       <r>    0.8884    1.0000 </r>
       <r>    0.9018    1.0000 </r>
       <r>    0.9372    1.0000 </r>
       <r>    0.9704    1.0000 </r>
       <r>    1.0125    1.0000 </r>
       <r>    1.0311    1.0000 </r>
       <r>    1.7763    1.0000 </r>
       <r>    1.8260    1.0000 </r>
       <r>    1.8967    1.0000 </r>
       <r>    1.9254    1.0000 </r>
       <r>    1.9798    1.0000 </r>
       <r>    2.0214    1.0000 </r>
       <r>    2.0404    1.0000 </r>
       <r>    2.0906    1.0000 </r>
       <r>    2.1518    1.0000 </r>
       <r>    2.2469    1.0000 </r>
       <r>    2.2723    1.0000 </r>
       <r>    2.3115    1.0000 </r>
       <r>    2.8494    1.0000 </r>
       <r>    2.9169    1.0000 </r>
       <r>    2.9728    1.0000 </r>
       <r>    3.0140    1.0000 </r>
       <r>    3.0686    1.0000 </r>
       <r>    3.0975    1.0000 </r>
       <r>    3.2789    1.0000 </r>
       <r>    3.2921    1.0000 </r>
       <r>    3.2989    1.0000 </r>
       <r>    3.3257    1.0000 </r>
       <r>    3.3453    1.0000 </r>
       <r>    3.3999    1.0000 </r>
       <r>    3.4880    1.0000 </r>
       <r>    3.5350    1.0000 </r>
       <r>    3.5579    1.0000 </r>
       <r>    3.6123    1.0000 </r>
       <r>    3.6235    1.0000 </r>
       <r>    3.6694    1.0000 </r>
       <r>    3.6832    1.0000 </r>
       <r>    3.7594    1.0000 </r>
       <r>    3.7688    1.0000 </r>
       <r>    3.8812    1.0000 </r>
       <r>    3.9084    1.0000 </r>
       <r>    3.9438    1.0000 </r>
       <r>    4.4790    1.0000 </r>
       <r>    4.5109    1.0000 </r>
       <r>    4.6010    1.0000 </r>
       <r>    4.6431    1.0000 </r>
       <r>    4.6984    1.0000 </r>
       <r>    4.7357    1.0000 </r>
       <r>    4.7915    1.0000 </r>
       <r>    4.8478    1.0000 </r>
       <r>    4.8658    1.0000 </r>
       <r>    4.8849    1.0000 </r>
       <r>    4.9382    1.0000 </r>
       <r>    4.9747    1.0000 </r>
       <r>    5.8267    1.0000 </r>
       <r>    5.8547    1.0000 </r>
       <r>    5.8834    1.0000 </r>
       <r>    5.9035    1.0000 </r>
       <r>    5.9750    1.0000 </r>
       <r>    6.0355    1.0000 </r>
       <r>    6.0774    1.0000 </r>
       <r>    6.1026    1.0000 </r>
       <r>    6.2185    1.0000 </r>
       <r>    6.2404    1.0000 </r>
       <r>    6.2674    1.0000 </r>
       <r>    6.3192    1.0000 </r>
       <r>    6.4455    1.0000 </r>
       <r>    6.5852    1.0000 </r>
       <r>    6.6180    1.0000 </r>
       <r>    6.6607    1.0000 </r>
       <r>    6.7126    1.0000 </r>
       <r>    6.7916    1.0000 </r>
       <r>    6.8074    1.0000 </r>
       <r>    6.8381    1.0000 </r>
       <r>    6.8848    1.0000 </r>
       <r>    6.9155    1.0000 </r>
       <r>    6.9494    1.0000 </r>
       <r>    6.9622    1.0000 </r>
       <r>    6.9752    1.0000 </r>
       <r>    7.0072    1.0000 </r>
       <r>    7.0296    1.0000 </r>
       <r>    7.1044    1.0000 </r>
       <r>    7.2221    1.0000 </r>
       <r>    7.2390    1.0000 </r>
       <r>    7.2916    1.0000 </r>
       <r>    7.3721    1.0000 </r>
       <r>    8.0586    1.0132 </r>
       <r>    8.1256    0.9086 </r>
       <r>    8.1413    0.8682 </r>
       <r>    9.1124   -0.0000 </r>
       <r>    9.3341   -0.0000 </r>
       <r>    9.5200   -0.0000 </r>
       <r>   11.7560   -0.0000 </r>
       <r>   11.8503   -0.0000 </r>
       <r>   11.8865   -0.0000 </r>
       <r>   11.9584   -0.0000 </r>
       <r>   12.0464   -0.0000 </r>
       <r>   12.0834   -0.0000 </r>
       <r>   12.1699   -0.0000 </r>
       <r>   12.1990   -0.0000 </r>
       <r>   12.2612   -0.0000 </r>
       <r>   12.8783   -0.0000 </r>
       <r>   12.9473   -0.0000 </r>
       <r>   12.9861   -0.0000 </r>
       <r>   13.0253   -0.0000 </r>
       <r>   13.0823   -0.0000 </r>
       <r>   13.0987   -0.0000 </r>
       <r>   13.1773   -0.0000 </r>
       <r>   13.2032   -0.0000 </r>
       <r>   13.2257   -0.0000 </r>
       <r>   13.2830   -0.0000 </r>
       <r>   13.3163   -0.0000 </r>
       <r>   13.3344   -0.0000 </r>
       <r>   13.3517   -0.0000 </r>
       <r>   13.4395   -0.0000 </r>
       <r>   13.4815   -0.0000 </r>
       <r>   13.5030   -0.0000 </r>
       <r>   13.5445   -0.0000 </r>
       <r>   13.5527   -0.0000 </r>
       <r>   13.6297   -0.0000 </r>
       <r>   13.6707   -0.0000 </r>
       <r>   13.7204    0.0000 </r>
       <r>   13.7893    0.0000 </r>
       <r>   14.0143    0.0000 </r>
       <r>   14.0480    0.0000 </r>
       <r>   14.0803    0.0000 </r>
       <r>   14.2142    0.0000 </r>
       <r>   14.3545    0.0000 </r>
       <r>   14.4106    0.0000 </r>
      </set>
      <set comment="kpoint 2">
       <r>   -7.2262    1.0000 </r>
       <r>   -6.6869    1.0000 </r>
       <r>   -5.7990    1.0000 </r>
       <r>   -5.6944    1.0000 </r>
       <r>   -5.6407    1.0000 </r>
       <r>   -5.5382    1.0000 </r>
       <r>   -5.2921    1.0000 </r>
       <r>   -5.1929    1.0000 </r>
       <r>   -5.1356    1.0000 </r>
       <r>   -5.0451    1.0000 </r>
       <r>   -4.6128    1.0000 </r>
       <r>   -4.4647    1.0000 </r>
       <r>   -4.3599    1.0000 </r>
       <r>   -4.2318    1.0000 </r>
       <r>   -4.1700    1.0000 </r>
       <r>   -4.0946    1.0000 </r>
       <r>   -3.9785    1.0000 </r>
       <r>   -3.9228    1.0000 </r>
       <r>   -3.7903    1.0000 </r>
       <r>   -3.5255    1.0000 </r>
       <r>   -3.4058    1.0000 </r>
       <r>   -3.3529    1.0000 </r>
       <r>   -3.3202    1.0000 </r>
       <r>   -3.1598    1.0000 </r>
       <r>   -2.7131    1.0000 </r>
       <r>   -2.5595    1.0000 </r>
       <r>   -2.4886    1.0000 </r>
       <r>   -2.4629    1.0000 </r>
       <r>   -2.3007    1.0000 </r>
       <r>   -2.2167    1.0000 </r>
       <r>   -2.1304    1.0000 </r>
       <r>   -1.9243    1.0000 </r>
       <r>   -0.2521    1.0000 </r>
       <r>   -0.0833    1.0000 </r>
       <r>   -0.0289    1.0000 </r>
       <r>    0.0866    1.0000 </r>
       <r>    0.3014    1.0000 </r>
       <r>    0.3350    1.0000 </r>
       <r>    0.6629    1.0000 </r>
       <r>    0.6807    1.0000 </r>
       <r>    0.8330    1.0000 </r>
       <r>    0.9267    1.0000 </r>
       <r>    0.9736    1.0000 </r>
       <r>    1.0102    1.0000 </r>
       <r>    1.0802    1.0000 </r>
       <r>    1.1042    1.0000 </r>
       <r>    1.1290    1.0000 </r>
       <r>    1.1557    1.0000 </r>
       <r>    1.2585    1.0000 </r>
       <r>    1.3240    1.0000 </r>
       <r>    1.4562    1.0000 </r>
       <r>    1.5044    1.0000 </r>
       <r>    1.5384    1.0000 </r>
       <r>    2.5807    1.0000 </r>
       <r>    2.6303    1.0000 </r>
       <r>    2.6708    1.0000 </r>
       <r>    2.7291    1.0000 </r>
       <r>    2.8080    1.0000 </r>
       <r>    2.8249    1.0000 </r>
       <r>    2.8830    1.0000 </r>
       <r>    2.9306    1.0000 </r>
       <r>    2.9595    1.0000 </r>
       <r>    3.0312    1.0000 </r>
       <r>    3.0447    1.0000 </r>
       <r>    3.0913    1.0000 </r>
       <r>    3.1438    1.0000 </r>
       <r>    3.4724    1.0000 </r>
       <r>    3.5373    1.0000 </r>
       <r>    3.6153    1.0000 </r>
       <r>    3.6488    1.0000 </r>
       <r>    3.9037    1.0000 </r>
       <r>    3.9642    1.0000 </r>
       <r>    4.0158    1.0000 </r>
       <r>    4.0734    1.0000 </r>
       <r>    4.2422    1.0000 </r>
       <r>    4.3156    1.0000 </r>
       <r>    4.3396    1.0000 </r>
       <r>    4.3476    1.0000 </r>
       <r>    4.3919    1.0000 </r>
       <r>    4.4359    1.0000 </r>
       <r>    4.4599    1.0000 </r>
       <r>    4.5105    1.0000 </r>
       <r>    4.5450    1.0000 </r>
       <r>    4.6206    1.0000 </r>
       <r>    4.6364    1.0000 </r>
       <r>    4.6993    1.0000 </r>
       <r>    4.7538    1.0000 </r>
       <r>    4.7994    1.0000 </r>
       <r>    4.9226    1.0000 </r>
       <r>    4.9638    1.0000 </r>
       <r>    5.0196    1.0000 </r>
       <r>    5.0455    1.0000 </r>
       <r>    5.3743    1.0000 </r>
       <r>    5.3891    1.0000 </r>
       <r>    5.5007    1.0000 </r>
       <r>    5.5945    1.0000 </r>
       <r>    5.6531    1.0000 </r>
       <r>    5.6760    1.0000 </r>
       <r>    5.7683    1.0000 </r>
       <r>    5.8309    1.0000 </r>
       <r>    5.8631    1.0000 </r>
       <r>    5.9953    1.0000 </r>
       <r>    6.0830    1.0000 </r>
       <r>    6.1721    1.0000 </r>
       <r>    6.2027    1.0000 </r>
       <r>    6.3287    1.0000 </r>
       <r>    6.3672    1.0000 </r>
       <r>    6.4365    1.0000 </r>
       <r>    6.4981    1.0000 </r>
       <r>    6.5410    1.0000 </r>
       <r>    6.6258    1.0000 </r>
       <r>    6.6892    1.0000 </r>
       <r>    6.7400    1.0000 </r>
       <r>    6.7850    1.0000 </r>
       <r>    6.8254    1.0000 </r>
       <r>    6.8831    1.0000 </r>
       <r>    6.9045    1.0000 </r>
       <r>    6.9163    1.0000 </r>
       <r>    6.9675    1.0000 </r>
       <r>    6.9964    1.0000 </r>
       <r>    7.0512    1.0000 </r>
       <r>    7.1045    1.0000 </r>
       <r>    7.1395    1.0000 </r>
       <r>    7.2460    1.0000 </r>
       <r>    7.2726    1.0000 </r>
       <r>    7.6049    1.0000 </r>
       <r>    7.7647    1.0020 </r>
       <r>    7.8153    1.0052 </r>
       <r>    9.5986   -0.0000 </r>
       <r>   10.0679   -0.0000 </r>
       <r>   10.2665   -0.0000 </r>
       <r>   10.5793   -0.0000 </r>
       <r>   11.7824   -0.0000 </r>
       <r>   11.9726   -0.0000 </r>
       <r>   12.3542   -0.0000 </r>
       <r>   12.3642   -0.0000 </r>
       <r>   12.4957   -0.0000 </r>
       <r>   12.5897   -0.0000 </r>
       <r>   12.6496   -0.0000 </r>
       <r>   12.7196   -0.0000 </r>
       <r>   12.8369   -0.0000 </r>
       <r>   12.8846   -0.0000 </r>
       <r>   12.9210   -0.0000 </r>
       <r>   12.9498   -0.0000 </r>
       <r>   12.9762   -0.0000 </r>
       <r>   13.0148   -0.0000 </r>
       <r>   13.0694   -0.0000 </r>
       <r>   13.1184   -0.0000 </r>
       <r>   13.2026   -0.0000 </r>
       <r>   13.2801   -0.0000 </r>
       <r>   13.4076   -0.0000 </r>
       <r>   13.4643   -0.0000 </r>
       <r>   13.5404   -0.0000 </r>
       <r>   13.5716   -0.0000 </r>
       <r>   13.6274   -0.0000 </r>
       <r>   13.6398   -0.0000 </r>
       <r>   13.6851   -0.0000 </r>
       <r>   13.7334    0.0000 </r>
       <r>   13.7612    0.0000 </r>
       <r>   13.9060    0.0000 </r>
       <r>   13.9300    0.0000 </r>
       <r>   14.0328    0.0000 </r>
       <r>   14.1189    0.0000 </r>
       <r>   14.3945    0.0000 </r>
       <r>   14.5847    0.0000 </r>
       <r>   14.6802    0.0000 </r>
       <r>   14.7292    0.0000 </r>
       <r>   14.7939    0.0000 </r>
      </set>
      <set comment="kpoint 3">
       <r>   -7.2309    1.0000 </r>
       <r>   -6.6718    1.0000 </r>
       <r>   -5.8255    1.0000 </r>
       <r>   -5.7289    1.0000 </r>
       <r>   -5.6523    1.0000 </r>
       <r>   -5.5059    1.0000 </r>
       <r>   -5.2331    1.0000 </r>
       <r>   -5.1966    1.0000 </r>
       <r>   -5.1183    1.0000 </r>
       <r>   -4.9894    1.0000 </r>
       <r>   -4.6627    1.0000 </r>
       <r>   -4.6219    1.0000 </r>
       <r>   -4.3607    1.0000 </r>
       <r>   -4.2535    1.0000 </r>
       <r>   -4.1059    1.0000 </r>
       <r>   -4.0338    1.0000 </r>
       <r>   -3.9660    1.0000 </r>
       <r>   -3.8938    1.0000 </r>
       <r>   -3.7974    1.0000 </r>
       <r>   -3.5623    1.0000 </r>
       <r>   -3.4746    1.0000 </r>
       <r>   -3.3517    1.0000 </r>
       <r>   -3.2356    1.0000 </r>
       <r>   -3.1493    1.0000 </r>
       <r>   -2.6513    1.0000 </r>
       <r>   -2.5615    1.0000 </r>
       <r>   -2.5486    1.0000 </r>
       <r>   -2.4468    1.0000 </r>
       <r>   -2.3484    1.0000 </r>
       <r>   -2.2542    1.0000 </r>
       <r>   -2.0828    1.0000 </r>
       <r>   -1.9239    1.0000 </r>
       <r>   -0.2593    1.0000 </r>
       <r>   -0.0699    1.0000 </r>
       <r>   -0.0474    1.0000 </r>
       <r>    0.0678    1.0000 </r>
       <r>    0.3052    1.0000 </r>
       <r>    0.3185    1.0000 </r>
       <r>    0.6805    1.0000 </r>
       <r>    0.7264    1.0000 </r>
       <r>    0.8668    1.0000 </r>
       <r>    0.9497    1.0000 </r>
       <r>    0.9964    1.0000 </r>
       <r>    1.0078    1.0000 </r>
       <r>    1.0510    1.0000 </r>
       <r>    1.1094    1.0000 </r>
       <r>    1.1610    1.0000 </r>
       <r>    1.2113    1.0000 </r>
       <r>    1.2676    1.0000 </r>
       <r>    1.3093    1.0000 </r>
       <r>    1.3570    1.0000 </r>
       <r>    1.4585    1.0000 </r>
       <r>    1.5406    1.0000 </r>
       <r>    2.5368    1.0000 </r>
       <r>    2.6105    1.0000 </r>
       <r>    2.6371    1.0000 </r>
       <r>    2.6897    1.0000 </r>
       <r>    2.7973    1.0000 </r>
       <r>    2.8450    1.0000 </r>
       <r>    2.8820    1.0000 </r>
       <r>    2.9398    1.0000 </r>
       <r>    2.9761    1.0000 </r>
       <r>    3.0282    1.0000 </r>
       <r>    3.0518    1.0000 </r>
       <r>    3.1009    1.0000 </r>
       <r>    3.1927    1.0000 </r>
       <r>    3.4864    1.0000 </r>
       <r>    3.5165    1.0000 </r>
       <r>    3.6056    1.0000 </r>
       <r>    3.6454    1.0000 </r>
       <r>    3.8790    1.0000 </r>
       <r>    3.9483    1.0000 </r>
       <r>    4.0415    1.0000 </r>
       <r>    4.1070    1.0000 </r>
       <r>    4.2871    1.0000 </r>
       <r>    4.3158    1.0000 </r>
       <r>    4.3303    1.0000 </r>
       <r>    4.3514    1.0000 </r>
       <r>    4.3918    1.0000 </r>
       <r>    4.4085    1.0000 </r>
       <r>    4.4478    1.0000 </r>
       <r>    4.5187    1.0000 </r>
       <r>    4.5887    1.0000 </r>
       <r>    4.6227    1.0000 </r>
       <r>    4.6774    1.0000 </r>
       <r>    4.7401    1.0000 </r>
       <r>    4.7727    1.0000 </r>
       <r>    4.8021    1.0000 </r>
       <r>    4.9127    1.0000 </r>
       <r>    4.9323    1.0000 </r>
       <r>    4.9678    1.0000 </r>
       <r>    4.9963    1.0000 </r>
       <r>    5.3433    1.0000 </r>
       <r>    5.3879    1.0000 </r>
       <r>    5.5152    1.0000 </r>
       <r>    5.6103    1.0000 </r>
       <r>    5.6275    1.0000 </r>
       <r>    5.7235    1.0000 </r>
       <r>    5.8291    1.0000 </r>
       <r>    5.8619    1.0000 </r>
       <r>    5.9139    1.0000 </r>
       <r>    5.9929    1.0000 </r>
       <r>    6.1297    1.0000 </r>
       <r>    6.2036    1.0000 </r>
       <r>    6.2315    1.0000 </r>
       <r>    6.3246    1.0000 </r>
       <r>    6.3662    1.0000 </r>
       <r>    6.4027    1.0000 </r>
       <r>    6.4444    1.0000 </r>
       <r>    6.4980    1.0000 </r>
       <r>    6.5698    1.0000 </r>
       <r>    6.6101    1.0000 </r>
       <r>    6.6859    1.0000 </r>
       <r>    6.7542    1.0000 </r>
       <r>    6.8085    1.0000 </r>
       <r>    6.8714    1.0000 </r>
       <r>    6.9037    1.0000 </r>
       <r>    6.9420    1.0000 </r>
       <r>    6.9528    1.0000 </r>
       <r>    6.9899    1.0000 </r>
       <r>    7.0379    1.0000 </r>
       <r>    7.0830    1.0000 </r>
       <r>    7.1648    1.0000 </r>
       <r>    7.2767    1.0000 </r>
       <r>    7.3383    1.0000 </r>
       <r>    7.5737    1.0000 </r>
       <r>    7.8148    1.0052 </r>
       <r>    7.8395    1.0078 </r>
       <r>    9.5919   -0.0000 </r>
       <r>   10.0306   -0.0000 </r>
       <r>   10.2907   -0.0000 </r>
       <r>   10.6040   -0.0000 </r>
       <r>   11.7633   -0.0000 </r>
       <r>   11.9936   -0.0000 </r>
       <r>   12.3520   -0.0000 </r>
       <r>   12.4126   -0.0000 </r>
       <r>   12.5234   -0.0000 </r>
       <r>   12.5581   -0.0000 </r>
       <r>   12.6526   -0.0000 </r>
       <r>   12.7703   -0.0000 </r>
       <r>   12.8056   -0.0000 </r>
       <r>   12.8365   -0.0000 </r>
       <r>   12.9158   -0.0000 </r>
       <r>   12.9785   -0.0000 </r>
       <r>   12.9945   -0.0000 </r>
       <r>   13.0288   -0.0000 </r>
       <r>   13.0579   -0.0000 </r>
       <r>   13.1312   -0.0000 </r>
       <r>   13.1628   -0.0000 </r>
       <r>   13.2302   -0.0000 </r>
       <r>   13.4063   -0.0000 </r>
       <r>   13.4749   -0.0000 </r>
       <r>   13.5009   -0.0000 </r>
       <r>   13.5520   -0.0000 </r>
       <r>   13.6155   -0.0000 </r>
       <r>   13.6640   -0.0000 </r>
       <r>   13.6697   -0.0000 </r>
       <r>   13.7433    0.0000 </r>
       <r>   13.7835    0.0000 </r>
       <r>   13.9175    0.0000 </r>
       <r>   13.9547    0.0000 </r>
       <r>   13.9986    0.0000 </r>
       <r>   14.1257    0.0000 </r>
       <r>   14.4139    0.0000 </r>
       <r>   14.6523    0.0000 </r>
       <r>   14.7107    0.0000 </r>
       <r>   14.7195    0.0000 </r>
       <r>   14.7689    0.0000 </r>
      </set>
      <set comment="kpoint 4">
       <r>   -7.2233    1.0000 </r>
       <r>   -6.6864    1.0000 </r>
       <r>   -5.8355    1.0000 </r>
       <r>   -5.7701    1.0000 </r>
       <r>   -5.5231    1.0000 </r>
       <r>   -5.5049    1.0000 </r>
       <r>   -5.3460    1.0000 </r>
       <r>   -5.2732    1.0000 </r>
       <r>   -5.0261    1.0000 </r>
       <r>   -5.0091    1.0000 </r>
       <r>   -4.6550    1.0000 </r>
       <r>   -4.4842    1.0000 </r>
       <r>   -4.3119    1.0000 </r>
       <r>   -4.2363    1.0000 </r>
       <r>   -4.1845    1.0000 </r>
       <r>   -4.0691    1.0000 </r>
       <r>   -4.0184    1.0000 </r>
       <r>   -3.9345    1.0000 </r>
       <r>   -3.7848    1.0000 </r>
       <r>   -3.5494    1.0000 </r>
       <r>   -3.4461    1.0000 </r>
       <r>   -3.3347    1.0000 </r>
       <r>   -3.2659    1.0000 </r>
       <r>   -3.1705    1.0000 </r>
       <r>   -2.7255    1.0000 </r>
       <r>   -2.6155    1.0000 </r>
       <r>   -2.5149    1.0000 </r>
       <r>   -2.4067    1.0000 </r>
       <r>   -2.2364    1.0000 </r>
       <r>   -2.1508    1.0000 </r>
       <r>   -2.1128    1.0000 </r>
       <r>   -2.0339    1.0000 </r>
       <r>   -0.2567    1.0000 </r>
       <r>   -0.0846    1.0000 </r>
       <r>   -0.0316    1.0000 </r>
       <r>    0.0868    1.0000 </r>
       <r>    0.3205    1.0000 </r>
       <r>    0.3403    1.0000 </r>
       <r>    0.6610    1.0000 </r>
       <r>    0.6928    1.0000 </r>
       <r>    0.8310    1.0000 </r>
       <r>    0.8930    1.0000 </r>
       <r>    0.9727    1.0000 </r>
       <r>    1.0043    1.0000 </r>
       <r>    1.0639    1.0000 </r>
       <r>    1.0888    1.0000 </r>
       <r>    1.1164    1.0000 </r>
       <r>    1.2404    1.0000 </r>
       <r>    1.2819    1.0000 </r>
       <r>    1.3145    1.0000 </r>
       <r>    1.3957    1.0000 </r>
       <r>    1.4722    1.0000 </r>
       <r>    1.5600    1.0000 </r>
       <r>    2.5881    1.0000 </r>
       <r>    2.6285    1.0000 </r>
       <r>    2.7152    1.0000 </r>
       <r>    2.7420    1.0000 </r>
       <r>    2.7622    1.0000 </r>
       <r>    2.8504    1.0000 </r>
       <r>    2.8801    1.0000 </r>
       <r>    2.9095    1.0000 </r>
       <r>    2.9853    1.0000 </r>
       <r>    3.0404    1.0000 </r>
       <r>    3.0644    1.0000 </r>
       <r>    3.1246    1.0000 </r>
       <r>    3.1547    1.0000 </r>
       <r>    3.4629    1.0000 </r>
       <r>    3.5127    1.0000 </r>
       <r>    3.6298    1.0000 </r>
       <r>    3.6819    1.0000 </r>
       <r>    3.9181    1.0000 </r>
       <r>    3.9541    1.0000 </r>
       <r>    4.0084    1.0000 </r>
       <r>    4.0809    1.0000 </r>
       <r>    4.2282    1.0000 </r>
       <r>    4.2611    1.0000 </r>
       <r>    4.3004    1.0000 </r>
       <r>    4.3356    1.0000 </r>
       <r>    4.3783    1.0000 </r>
       <r>    4.4085    1.0000 </r>
       <r>    4.4667    1.0000 </r>
       <r>    4.4898    1.0000 </r>
       <r>    4.5196    1.0000 </r>
       <r>    4.5744    1.0000 </r>
       <r>    4.6813    1.0000 </r>
       <r>    4.6964    1.0000 </r>
       <r>    4.7506    1.0000 </r>
       <r>    4.8451    1.0000 </r>
       <r>    4.9374    1.0000 </r>
       <r>    4.9728    1.0000 </r>
       <r>    5.0435    1.0000 </r>
       <r>    5.1213    1.0000 </r>
       <r>    5.3615    1.0000 </r>
       <r>    5.3810    1.0000 </r>
       <r>    5.4747    1.0000 </r>
       <r>    5.5046    1.0000 </r>
       <r>    5.6681    1.0000 </r>
       <r>    5.7186    1.0000 </r>
       <r>    5.7335    1.0000 </r>
       <r>    5.8177    1.0000 </r>
       <r>    5.9002    1.0000 </r>
       <r>    5.9469    1.0000 </r>
       <r>    6.1113    1.0000 </r>
       <r>    6.1549    1.0000 </r>
       <r>    6.2418    1.0000 </r>
       <r>    6.3055    1.0000 </r>
       <r>    6.3730    1.0000 </r>
       <r>    6.4194    1.0000 </r>
       <r>    6.5056    1.0000 </r>
       <r>    6.5326    1.0000 </r>
       <r>    6.6304    1.0000 </r>
       <r>    6.7178    1.0000 </r>
       <r>    6.7360    1.0000 </r>
       <r>    6.7909    1.0000 </r>
       <r>    6.8503    1.0000 </r>
       <r>    6.8926    1.0000 </r>
       <r>    6.9008    1.0000 </r>
       <r>    6.9430    1.0000 </r>
       <r>    6.9674    1.0000 </r>
       <r>    7.0256    1.0000 </r>
       <r>    7.0766    1.0000 </r>
       <r>    7.0979    1.0000 </r>
       <r>    7.1720    1.0000 </r>
       <r>    7.1895    1.0000 </r>
       <r>    7.2354    1.0000 </r>
       <r>    7.6248    1.0001 </r>
       <r>    7.7430    1.0012 </r>
       <r>    7.8020    1.0041 </r>
       <r>    9.5667   -0.0000 </r>
       <r>   10.1641   -0.0000 </r>
       <r>   10.2084   -0.0000 </r>
       <r>   10.5489   -0.0000 </r>
       <r>   11.8532   -0.0000 </r>
       <r>   11.8953   -0.0000 </r>
       <r>   12.3596   -0.0000 </r>
       <r>   12.4374   -0.0000 </r>
       <r>   12.5200   -0.0000 </r>
       <r>   12.5615   -0.0000 </r>
       <r>   12.6041   -0.0000 </r>
       <r>   12.7307   -0.0000 </r>
       <r>   12.7684   -0.0000 </r>
       <r>   12.8367   -0.0000 </r>
       <r>   12.8871   -0.0000 </r>
       <r>   12.9810   -0.0000 </r>
       <r>   13.0234   -0.0000 </r>
       <r>   13.0471   -0.0000 </r>
       <r>   13.0650   -0.0000 </r>
       <r>   13.1486   -0.0000 </r>
       <r>   13.2190   -0.0000 </r>
       <r>   13.2790   -0.0000 </r>
       <r>   13.4064   -0.0000 </r>
       <r>   13.4872   -0.0000 </r>
       <r>   13.5473   -0.0000 </r>
       <r>   13.5799   -0.0000 </r>
       <r>   13.6082   -0.0000 </r>
       <r>   13.6300   -0.0000 </r>
       <r>   13.6937   -0.0000 </r>
       <r>   13.7514    0.0000 </r>
       <r>   13.7627    0.0000 </r>
       <r>   13.8468    0.0000 </r>
       <r>   13.9578    0.0000 </r>
       <r>   14.0629    0.0000 </r>
       <r>   14.0827    0.0000 </r>
       <r>   14.4193    0.0000 </r>
       <r>   14.5830    0.0000 </r>
       <r>   14.6526    0.0000 </r>
       <r>   14.7050    0.0000 </r>
       <r>   14.8024    0.0000 </r>
      </set>
      <set comment="kpoint 5">
       <r>   -7.0623    1.0000 </r>
       <r>   -6.5438    1.0000 </r>
       <r>   -6.4832    1.0000 </r>
       <r>   -5.9610    1.0000 </r>
       <r>   -5.5609    1.0000 </r>
       <r>   -5.5096    1.0000 </r>
       <r>   -5.1157    1.0000 </r>
       <r>   -5.0476    1.0000 </r>
       <r>   -5.0045    1.0000 </r>
       <r>   -4.9564    1.0000 </r>
       <r>   -4.6258    1.0000 </r>
       <r>   -4.5333    1.0000 </r>
       <r>   -4.4980    1.0000 </r>
       <r>   -4.4024    1.0000 </r>
       <r>   -4.1371    1.0000 </r>
       <r>   -3.9801    1.0000 </r>
       <r>   -3.6447    1.0000 </r>
       <r>   -3.6005    1.0000 </r>
       <r>   -3.4310    1.0000 </r>
       <r>   -3.3992    1.0000 </r>
       <r>   -3.3537    1.0000 </r>
       <r>   -3.3156    1.0000 </r>
       <r>   -3.1511    1.0000 </r>
       <r>   -3.1054    1.0000 </r>
       <r>   -2.9481    1.0000 </r>
       <r>   -2.7762    1.0000 </r>
       <r>   -2.7364    1.0000 </r>
       <r>   -2.6369    1.0000 </r>
       <r>   -2.5841    1.0000 </r>
       <r>   -2.4017    1.0000 </r>
       <r>   -2.2162    1.0000 </r>
       <r>   -2.0399    1.0000 </r>
       <r>   -0.2698    1.0000 </r>
       <r>   -0.2010    1.0000 </r>
       <r>    0.3598    1.0000 </r>
       <r>    0.4137    1.0000 </r>
       <r>    0.4600    1.0000 </r>
       <r>    0.4931    1.0000 </r>
       <r>    0.5498    1.0000 </r>
       <r>    0.6305    1.0000 </r>
       <r>    0.7068    1.0000 </r>
       <r>    0.7253    1.0000 </r>
       <r>    0.7709    1.0000 </r>
       <r>    0.8402    1.0000 </r>
       <r>    0.8823    1.0000 </r>
       <r>    0.9712    1.0000 </r>
       <r>    1.1358    1.0000 </r>
       <r>    1.1787    1.0000 </r>
       <r>    1.2788    1.0000 </r>
       <r>    1.3467    1.0000 </r>
       <r>    1.8762    1.0000 </r>
       <r>    1.9819    1.0000 </r>
       <r>    2.0341    1.0000 </r>
       <r>    2.0592    1.0000 </r>
       <r>    2.0876    1.0000 </r>
       <r>    2.1799    1.0000 </r>
       <r>    2.4101    1.0000 </r>
       <r>    2.5124    1.0000 </r>
       <r>    2.5633    1.0000 </r>
       <r>    2.6917    1.0000 </r>
       <r>    2.7200    1.0000 </r>
       <r>    3.1494    1.0000 </r>
       <r>    3.2024    1.0000 </r>
       <r>    3.2776    1.0000 </r>
       <r>    3.3250    1.0000 </r>
       <r>    3.3815    1.0000 </r>
       <r>    3.4711    1.0000 </r>
       <r>    3.5124    1.0000 </r>
       <r>    3.8061    1.0000 </r>
       <r>    3.8696    1.0000 </r>
       <r>    3.9638    1.0000 </r>
       <r>    4.0090    1.0000 </r>
       <r>    4.0293    1.0000 </r>
       <r>    4.0748    1.0000 </r>
       <r>    4.1169    1.0000 </r>
       <r>    4.2313    1.0000 </r>
       <r>    4.3153    1.0000 </r>
       <r>    4.4460    1.0000 </r>
       <r>    4.4990    1.0000 </r>
       <r>    4.5952    1.0000 </r>
       <r>    4.6287    1.0000 </r>
       <r>    4.8138    1.0000 </r>
       <r>    4.8369    1.0000 </r>
       <r>    4.8573    1.0000 </r>
       <r>    4.9032    1.0000 </r>
       <r>    4.9478    1.0000 </r>
       <r>    5.0304    1.0000 </r>
       <r>    5.0859    1.0000 </r>
       <r>    5.2093    1.0000 </r>
       <r>    5.2621    1.0000 </r>
       <r>    5.3651    1.0000 </r>
       <r>    5.3950    1.0000 </r>
       <r>    5.4191    1.0000 </r>
       <r>    5.4532    1.0000 </r>
       <r>    5.4858    1.0000 </r>
       <r>    5.5129    1.0000 </r>
       <r>    5.5681    1.0000 </r>
       <r>    5.6202    1.0000 </r>
       <r>    5.6641    1.0000 </r>
       <r>    5.7302    1.0000 </r>
       <r>    5.7930    1.0000 </r>
       <r>    5.8471    1.0000 </r>
       <r>    5.9037    1.0000 </r>
       <r>    5.9354    1.0000 </r>
       <r>    6.0175    1.0000 </r>
       <r>    6.0523    1.0000 </r>
       <r>    6.2280    1.0000 </r>
       <r>    6.2544    1.0000 </r>
       <r>    6.2958    1.0000 </r>
       <r>    6.3155    1.0000 </r>
       <r>    6.3539    1.0000 </r>
       <r>    6.4572    1.0000 </r>
       <r>    6.5113    1.0000 </r>
       <r>    6.5721    1.0000 </r>
       <r>    6.6092    1.0000 </r>
       <r>    6.6644    1.0000 </r>
       <r>    6.7345    1.0000 </r>
       <r>    6.7689    1.0000 </r>
       <r>    6.8181    1.0000 </r>
       <r>    6.9206    1.0000 </r>
       <r>    6.9742    1.0000 </r>
       <r>    7.0724    1.0000 </r>
       <r>    7.0943    1.0000 </r>
       <r>    7.4179    1.0000 </r>
       <r>    7.5596    1.0000 </r>
       <r>    7.6541    1.0001 </r>
       <r>    7.6987    1.0004 </r>
       <r>    8.0204    1.0327 </r>
       <r>   10.2019   -0.0000 </r>
       <r>   10.4338   -0.0000 </r>
       <r>   10.5693   -0.0000 </r>
       <r>   11.1860   -0.0000 </r>
       <r>   11.2759   -0.0000 </r>
       <r>   11.5227   -0.0000 </r>
       <r>   11.6942   -0.0000 </r>
       <r>   11.7915   -0.0000 </r>
       <r>   12.1206   -0.0000 </r>
       <r>   12.1885   -0.0000 </r>
       <r>   12.6370   -0.0000 </r>
       <r>   12.6916   -0.0000 </r>
       <r>   12.7981   -0.0000 </r>
       <r>   12.8430   -0.0000 </r>
       <r>   12.9003   -0.0000 </r>
       <r>   12.9954   -0.0000 </r>
       <r>   13.0388   -0.0000 </r>
       <r>   13.0644   -0.0000 </r>
       <r>   13.1199   -0.0000 </r>
       <r>   13.1641   -0.0000 </r>
       <r>   13.2282   -0.0000 </r>
       <r>   13.2780   -0.0000 </r>
       <r>   13.4216   -0.0000 </r>
       <r>   13.4817   -0.0000 </r>
       <r>   13.5422   -0.0000 </r>
       <r>   13.6162   -0.0000 </r>
       <r>   13.6703   -0.0000 </r>
       <r>   13.7119    0.0000 </r>
       <r>   13.7682    0.0000 </r>
       <r>   13.8143    0.0000 </r>
       <r>   13.8600    0.0000 </r>
       <r>   13.8892    0.0000 </r>
       <r>   14.0027    0.0000 </r>
       <r>   14.0674    0.0000 </r>
       <r>   14.1939    0.0000 </r>
       <r>   14.5544    0.0000 </r>
       <r>   14.6047    0.0000 </r>
       <r>   14.6723    0.0000 </r>
       <r>   14.8376    0.0000 </r>
       <r>   14.9197    0.0000 </r>
      </set>
      <set comment="kpoint 6">
       <r>   -7.0578    1.0000 </r>
       <r>   -6.5395    1.0000 </r>
       <r>   -6.4873    1.0000 </r>
       <r>   -5.9893    1.0000 </r>
       <r>   -5.6366    1.0000 </r>
       <r>   -5.3837    1.0000 </r>
       <r>   -5.1803    1.0000 </r>
       <r>   -5.0622    1.0000 </r>
       <r>   -4.9764    1.0000 </r>
       <r>   -4.8323    1.0000 </r>
       <r>   -4.6919    1.0000 </r>
       <r>   -4.5704    1.0000 </r>
       <r>   -4.5031    1.0000 </r>
       <r>   -4.3954    1.0000 </r>
       <r>   -4.0992    1.0000 </r>
       <r>   -3.9754    1.0000 </r>
       <r>   -3.7303    1.0000 </r>
       <r>   -3.5483    1.0000 </r>
       <r>   -3.4863    1.0000 </r>
       <r>   -3.4268    1.0000 </r>
       <r>   -3.3400    1.0000 </r>
       <r>   -3.3188    1.0000 </r>
       <r>   -3.1491    1.0000 </r>
       <r>   -3.0400    1.0000 </r>
       <r>   -2.9317    1.0000 </r>
       <r>   -2.7789    1.0000 </r>
       <r>   -2.7737    1.0000 </r>
       <r>   -2.6622    1.0000 </r>
       <r>   -2.5291    1.0000 </r>
       <r>   -2.3871    1.0000 </r>
       <r>   -2.1843    1.0000 </r>
       <r>   -2.0950    1.0000 </r>
       <r>   -0.3227    1.0000 </r>
       <r>   -0.1375    1.0000 </r>
       <r>    0.3368    1.0000 </r>
       <r>    0.4239    1.0000 </r>
       <r>    0.4350    1.0000 </r>
       <r>    0.5139    1.0000 </r>
       <r>    0.5424    1.0000 </r>
       <r>    0.5803    1.0000 </r>
       <r>    0.6847    1.0000 </r>
       <r>    0.7298    1.0000 </r>
       <r>    0.7831    1.0000 </r>
       <r>    0.8530    1.0000 </r>
       <r>    0.8962    1.0000 </r>
       <r>    1.0310    1.0000 </r>
       <r>    1.1390    1.0000 </r>
       <r>    1.1847    1.0000 </r>
       <r>    1.2740    1.0000 </r>
       <r>    1.3742    1.0000 </r>
       <r>    1.8152    1.0000 </r>
       <r>    1.9476    1.0000 </r>
       <r>    2.0169    1.0000 </r>
       <r>    2.0572    1.0000 </r>
       <r>    2.1168    1.0000 </r>
       <r>    2.2122    1.0000 </r>
       <r>    2.4056    1.0000 </r>
       <r>    2.5163    1.0000 </r>
       <r>    2.5934    1.0000 </r>
       <r>    2.6340    1.0000 </r>
       <r>    2.7651    1.0000 </r>
       <r>    3.1278    1.0000 </r>
       <r>    3.2099    1.0000 </r>
       <r>    3.2371    1.0000 </r>
       <r>    3.3677    1.0000 </r>
       <r>    3.3994    1.0000 </r>
       <r>    3.4612    1.0000 </r>
       <r>    3.5452    1.0000 </r>
       <r>    3.8063    1.0000 </r>
[...]
      </set>
     </set>
    </set>
   </array>
  </eigenvalues>
  <separator name="orbital magnetization" >
   <v name="MAGDIPOLOUT">      0.00000000      0.00000000      0.00000000</v>
  </separator>
  <dos>
   <i name="efermi">      8.24064613 </i>
   <total>
    <array>
     <dimension dim="1">gridpoints</dimension>
     <dimension dim="2">spin</dimension>
     <field>energy</field>
     <field>total</field>
     <field>integrated</field>
     <set>
      <set comment="spin 1">
       <r>    -9.3983     0.0000     0.0000 </r>
       <r>    -9.3092     0.0000     0.0000 </r>
       <r>    -9.2201     0.0000     0.0000 </r>
       <r>    -9.1310     0.0000     0.0000 </r>
       <r>    -9.0419    -0.0000    -0.0000 </r>
       <r>    -8.9528    -0.0000    -0.0000 </r>
       <r>    -8.8637    -0.0000    -0.0000 </r>
       <r>    -8.7746    -0.0000    -0.0000 </r>
       <r>    -8.6855    -0.0000    -0.0000 </r>
       <r>    -8.5964    -0.0000    -0.0000 </r>
       <r>    -8.5073    -0.0000    -0.0000 </r>
       <r>    -8.4182    -0.0000    -0.0000 </r>
       <r>    -8.3291    -0.0000    -0.0000 </r>
       <r>    -8.2400    -0.0000    -0.0000 </r>
       <r>    -8.1509    -0.0000    -0.0000 </r>
       <r>    -8.0617    -0.0000    -0.0000 </r>
       <r>    -7.9726    -0.0001    -0.0000 </r>
       <r>    -7.8835    -0.0013    -0.0001 </r>
       <r>    -7.7944    -0.0068    -0.0007 </r>
       <r>    -7.7053    -0.0229    -0.0028 </r>
       <r>    -7.6162    -0.0456    -0.0068 </r>
       <r>    -7.5271    -0.0324    -0.0097 </r>
       <r>    -7.4380     0.1284     0.0017 </r>
       <r>    -7.3489     0.6278     0.0577 </r>
       <r>    -7.2598     1.6085     0.2010 </r>
       <r>    -7.1707     2.9636     0.4650 </r>
       <r>    -7.0816     4.2487     0.8436 </r>
       <r>    -6.9925     4.7353     1.2655 </r>
       <r>    -6.9034     4.0641     1.6277 </r>
       <r>    -6.8143     2.8816     1.8844 </r>
       <r>    -6.7252     2.5422     2.1109 </r>
       <r>    -6.6361     4.1397     2.4798 </r>
       <r>    -6.5470     7.2505     3.1258 </r>
       <r>    -6.4579     9.7952     3.9986 </r>
       <r>    -6.3688     9.7948     4.8713 </r>
       <r>    -6.2797     7.2046     5.5132 </r>
       <r>    -6.1906     3.8648     5.8576 </r>
       <r>    -6.1015     2.3640     6.0682 </r>
       <r>    -6.0124     4.0985     6.4334 </r>
       <r>    -5.9233     7.6538     7.1154 </r>
       <r>    -5.8342    10.5384     8.0544 </r>
       <r>    -5.7451    11.7318     9.0997 </r>
       <r>    -5.6560    11.4677    10.1215 </r>
       <r>    -5.5669    10.1815    11.0287 </r>
       <r>    -5.4778     8.5699    11.7922 </r>
       <r>    -5.3887     7.8360    12.4904 </r>
       <r>    -5.2996     8.6158    13.2581 </r>
       <r>    -5.2105    10.3436    14.1798 </r>
       <r>    -5.1214    12.1645    15.2636 </r>
       <r>    -5.0323    12.8449    16.4081 </r>
       <r>    -4.9432    11.0432    17.3921 </r>
       <r>    -4.8541     7.7323    18.0811 </r>
       <r>    -4.7650     6.1438    18.6285 </r>
       <r>    -4.6759     8.1061    19.3507 </r>
       <r>    -4.5868    12.5043    20.4649 </r>
       <r>    -4.4977    16.7640    21.9586 </r>
       <r>    -4.4086    18.3259    23.5915 </r>
       <r>    -4.3195    16.5651    25.0674 </r>
       <r>    -4.2304    14.3991    26.3504 </r>
       <r>    -4.1413    15.3768    27.7205 </r>
       <r>    -4.0522    18.6698    29.3840 </r>
       <r>    -3.9631    20.0166    31.1675 </r>
       <r>    -3.8740    17.5454    32.7309 </r>
       <r>    -3.7849    14.0424    33.9821 </r>
       <r>    -3.6958    13.1703    35.1555 </r>
       <r>    -3.6067    15.3474    36.5230 </r>
       <r>    -3.5176    18.2020    38.1448 </r>
       <r>    -3.4285    19.7904    39.9082 </r>
       <r>    -3.3394    20.0504    41.6947 </r>
       <r>    -3.2503    19.6991    43.4499 </r>
       <r>    -3.1612    19.1607    45.1572 </r>
       <r>    -3.0721    18.3887    46.7957 </r>
       <r>    -2.9830    17.7075    48.3734 </r>
       <r>    -2.8939    18.0044    49.9776 </r>
       <r>    -2.8048    19.1835    51.6869 </r>
       <r>    -2.7157    20.0568    53.4740 </r>
       <r>    -2.6266    19.7747    55.2360 </r>
       <r>    -2.5375    18.2949    56.8661 </r>
       <r>    -2.4484    16.0431    58.2955 </r>
       <r>    -2.3593    13.7202    59.5180 </r>
       <r>    -2.2702    12.2264    60.6074 </r>
       <r>    -2.1811    11.7284    61.6524 </r>
       <r>    -2.0920    10.8543    62.6196 </r>
       <r>    -2.0028     8.3014    63.3592 </r>
       <r>    -1.9137     4.8093    63.7877 </r>
       <r>    -1.8246     2.0432    63.9698 </r>
       <r>    -1.7355     0.5660    64.0202 </r>
       <r>    -1.6464    -0.0048    64.0198 </r>
       <r>    -1.5573    -0.1175    64.0093 </r>
       <r>    -1.4682    -0.0731    64.0028 </r>
       <r>    -1.3791    -0.0252    64.0006 </r>
       <r>    -1.2900    -0.0056    64.0001 </r>
       <r>    -1.2009    -0.0018    63.9999 </r>
       <r>    -1.1118    -0.0054    63.9994 </r>
       <r>    -1.0227    -0.0154    63.9981 </r>
       <r>    -0.9336    -0.0159    63.9966 </r>
       <r>    -0.8445     0.0384    64.0001 </r>
       <r>    -0.7554     0.1567    64.0140 </r>
       <r>    -0.6663     0.2419    64.0356 </r>
       <r>    -0.5772     0.2563    64.0584 </r>
       <r>    -0.4881     0.5960    64.1115 </r>
       <r>    -0.3990     2.1457    64.3027 </r>
       <r>    -0.3099     5.1095    64.7580 </r>
       <r>    -0.2208     7.8775    65.4599 </r>
       <r>    -0.1317     8.7589    66.2403 </r>
       <r>    -0.0426     8.0994    66.9620 </r>
       <r>     0.0465     7.5037    67.6306 </r>
       <r>     0.1356     8.6506    68.4013 </r>
       <r>     0.2247    12.6093    69.5249 </r>
       <r>     0.3138    18.0829    71.1361 </r>
       <r>     0.4029    21.5657    73.0576 </r>
       <r>     0.4920    21.7425    74.9949 </r>
       <r>     0.5811    21.5747    76.9172 </r>
       <r>     0.6702    24.1010    79.0647 </r>
       <r>     0.7593    28.3673    81.5922 </r>
       <r>     0.8484    31.1076    84.3640 </r>
       <r>     0.9375    30.9019    87.1174 </r>
       <r>     1.0266    29.5365    89.7491 </r>
       <r>     1.1157    29.6016    92.3867 </r>
       <r>     1.2048    30.6532    95.1179 </r>
       <r>     1.2939    29.6478    97.7596 </r>
       <r>     1.3830    24.9341    99.9812 </r>
       <r>     1.4721    17.5366   101.5438 </r>
       <r>     1.5612     9.5732   102.3968 </r>
       <r>     1.6503     3.5764   102.7154 </r>
       <r>     1.7394     2.2928   102.9197 </r>
       <r>     1.8285     6.1343   103.4663 </r>
       <r>     1.9176    12.0716   104.5419 </r>
       <r>     2.0067    16.8859   106.0464 </r>
       <r>     2.0958    19.0078   107.7401 </r>
       <r>     2.1849    17.5734   109.3059 </r>
       <r>     2.2740    13.4216   110.5018 </r>
       <r>     2.3631     9.8227   111.3770 </r>
       <r>     2.4522     9.7160   112.2427 </r>
       <r>     2.5413    12.8757   113.3899 </r>
       <r>     2.6304    16.2267   114.8357 </r>
       <r>     2.7195    16.8533   116.3374 </r>
       <r>     2.8086    14.9011   117.6651 </r>
       <r>     2.8977    13.7488   118.8901 </r>
       <r>     2.9868    16.7578   120.3833 </r>
       <r>     3.0759    22.9156   122.4251 </r>
       <r>     3.1650    27.7454   124.8973 </r>
       <r>     3.2541    29.0246   127.4834 </r>
       <r>     3.3432    28.3851   130.0126 </r>
       <r>     3.4323    27.8231   132.4916 </r>
       <r>     3.5214    26.8942   134.8880 </r>
       <r>     3.6105    23.7101   137.0006 </r>
       <r>     3.6996    18.9509   138.6891 </r>
       <r>     3.7887    16.5805   140.1665 </r>
       <r>     3.8778    18.5122   141.8159 </r>
       <r>     3.9669    21.4686   143.7288 </r>
       <r>     4.0560    21.4811   145.6428 </r>
       <r>     4.1452    19.5840   147.3878 </r>
       <r>     4.2343    20.6269   149.2257 </r>
       <r>     4.3234    26.1233   151.5533 </r>
       <r>     4.4125    32.1703   154.4197 </r>
       <r>     4.5016    35.0144   157.5395 </r>
       <r>     4.5907    34.0669   160.5749 </r>
       <r>     4.6798    31.7557   163.4044 </r>
       <r>     4.7689    31.6456   166.2241 </r>
       <r>     4.8580    34.1001   169.2625 </r>
       <r>     4.9471    35.9614   172.4667 </r>
       <r>     5.0362    34.6915   175.5577 </r>
       <r>     5.1253    31.3673   178.3526 </r>
       <r>     5.2144    29.6266   180.9924 </r>
       <r>     5.3035    30.8819   183.7440 </r>
       <r>     5.3926    32.7393   186.6611 </r>
       <r>     5.4817    33.4216   189.6390 </r>
       <r>     5.5708    34.1181   192.6790 </r>
       <r>     5.6599    35.5451   195.8461 </r>
       <r>     5.7490    36.4290   199.0920 </r>
       <r>     5.8381    36.3768   202.3332 </r>
       <r>     5.9272    35.7511   205.5187 </r>
       <r>     6.0163    33.4922   208.5029 </r>
       <r>     6.1054    29.5647   211.1372 </r>
       <r>     6.1945    27.3958   213.5782 </r>
       <r>     6.2836    29.1775   216.1779 </r>
       <r>     6.3727    31.9777   219.0272 </r>
       <r>     6.4618    32.6097   221.9328 </r>
       <r>     6.5509    31.5002   224.7395 </r>
       <r>     6.6400    29.6677   227.3829 </r>
       <r>     6.7291    27.6812   229.8493 </r>
       <r>     6.8182    27.5873   232.3074 </r>
       <r>     6.9073    30.5911   235.0331 </r>
       <r>     6.9964    33.4113   238.0101 </r>
       <r>     7.0855    31.3755   240.8057 </r>
       <r>     7.1746    24.8898   243.0234 </r>
       <r>     7.2637    18.6627   244.6863 </r>
       <r>     7.3528    15.5854   246.0750 </r>
       <r>     7.4419    15.3455   247.4423 </r>
       <r>     7.5310    16.7403   248.9339 </r>
       <r>     7.6201    18.1485   250.5510 </r>
       <r>     7.7092    17.6689   252.1253 </r>
       <r>     7.7983    14.5802   253.4244 </r>
       <r>     7.8874    10.2535   254.3380 </r>
       <r>     7.9765     6.9939   254.9612 </r>
       <r>     8.0656     5.4629   255.4479 </r>
       <r>     8.1547     4.1304   255.8159 </r>
       <r>     8.2438     2.1057   256.0036 </r>
       <r>     8.3329     0.4023   256.0394 </r>
       <r>     8.4220    -0.2072   256.0209 </r>
       <r>     8.5111    -0.1689   256.0059 </r>
       <r>     8.6002    -0.0553   256.0010 </r>
       <r>     8.6893    -0.0140   255.9997 </r>
       <r>     8.7784    -0.0134   255.9985 </r>
       <r>     8.8675    -0.0148   255.9972 </r>
       <r>     8.9566     0.0345   256.0003 </r>
       <r>     9.0457     0.1627   256.0148 </r>
       <r>     9.1348     0.2826   256.0399 </r>
       <r>     9.2239     0.2911   256.0659 </r>
       <r>     9.3130     0.2688   256.0898 </r>
       <r>     9.4021     0.4960   256.1340 </r>
       <r>     9.4912     1.2076   256.2416 </r>
       <r>     9.5803     1.9721   256.4173 </r>
       <r>     9.6694     1.8514   256.5823 </r>
       <r>     9.7585     0.8460   256.6577 </r>
       <r>     9.8476    -0.0054   256.6572 </r>
       <r>     9.9367     0.0143   256.6585 </r>
       <r>    10.0258     1.0972   256.7562 </r>
       <r>    10.1149     3.2153   257.0427 </r>
       <r>    10.2041     5.5160   257.5342 </r>
       <r>    10.2932     6.7978   258.1399 </r>
       <r>    10.3823     7.5097   258.8090 </r>
       <r>    10.4714     8.7834   259.5916 </r>
       <r>    10.5605     9.8920   260.4730 </r>
       <r>    10.6496     9.2478   261.2970 </r>
       <r>    10.7387     6.7796   261.9011 </r>
       <r>    10.8278     3.8772   262.2466 </r>
       <r>    10.9169     1.5794   262.3873 </r>
       <r>    11.0060     0.6075   262.4414 </r>
       <r>    11.0951     1.9005   262.6108 </r>
       <r>    11.1842     5.0464   263.0604 </r>
       <r>    11.2733     7.7559   263.7515 </r>
       <r>    11.3624     8.5649   264.5146 </r>
       <r>    11.4515     8.8807   265.3059 </r>
       <r>    11.5406    10.4654   266.2384 </r>
       <r>    11.6297    12.9998   267.3967 </r>
       <r>    11.7188    15.5968   268.7864 </r>
       <r>    11.8079    17.3039   270.3282 </r>
       <r>    11.8970    17.1698   271.8580 </r>
       <r>    11.9861    16.2022   273.3017 </r>
       <r>    12.0752    15.6964   274.7003 </r>
       <r>    12.1643    14.3053   275.9749 </r>
       <r>    12.2534    10.9911   276.9542 </r>
       <r>    12.3425     8.3465   277.6979 </r>
       <r>    12.4316     9.4473   278.5397 </r>
       <r>    12.5207    14.1012   279.7961 </r>
       <r>    12.6098    19.8771   281.5672 </r>
       <r>    12.6989    24.5131   283.7513 </r>
       <r>    12.7880    27.1987   286.1748 </r>
       <r>    12.8771    28.6677   288.7291 </r>
       <r>    12.9662    29.7816   291.3827 </r>
       <r>    13.0553    30.0038   294.0561 </r>
       <r>    13.1444    28.2427   296.5725 </r>
       <r>    13.2335    24.4418   298.7503 </r>
       <r>    13.3226    20.3593   300.5644 </r>
       <r>    13.4117    19.5948   302.3103 </r>
       <r>    13.5008    23.6413   304.4168 </r>
       <r>    13.5899    28.6055   306.9656 </r>
       <r>    13.6790    30.1477   309.6518 </r>
       <r>    13.7681    28.9010   312.2269 </r>
       <r>    13.8572    28.5251   314.7685 </r>
       <r>    13.9463    30.3357   317.4715 </r>
       <r>    14.0354    31.4873   320.2770 </r>
       <r>    14.1245    28.4901   322.8156 </r>
       <r>    14.2136    21.0785   324.6937 </r>
       <r>    14.3027    12.5317   325.8103 </r>
       <r>    14.3918     7.1181   326.4445 </r>
       <r>    14.4809     7.6192   327.1234 </r>
       <r>    14.5700    13.5711   328.3326 </r>
       <r>    14.6591    20.1066   330.1241 </r>
       <r>    14.7482    21.4762   332.0377 </r>
       <r>    14.8373    16.9258   333.5458 </r>
       <r>    14.9264     9.9912   334.4360 </r>
       <r>    15.0155     4.1090   334.8021 </r>
       <r>    15.1046     1.4220   334.9288 </r>
       <r>    15.1937     2.1840   335.1234 </r>
       <r>    15.2828     3.9558   335.4759 </r>
       <r>    15.3719     3.8949   335.8230 </r>
       <r>    15.4610     2.0182   336.0028 </r>
       <r>    15.5501     0.3505   336.0340 </r>
       <r>    15.6392    -0.1910   336.0170 </r>
       <r>    15.7283    -0.1404   336.0045 </r>
       <r>    15.8174    -0.0421   336.0007 </r>
       <r>    15.9065    -0.0073   336.0001 </r>
       <r>    15.9956    -0.0008   336.0000 </r>
       <r>    16.0847    -0.0001   336.0000 </r>
       <r>    16.1738    -0.0000   336.0000 </r>
       <r>    16.2629    -0.0000   336.0000 </r>
       <r>    16.3521    -0.0000   336.0000 </r>
       <r>    16.4412    -0.0000   336.0000 </r>
       <r>    16.5303    -0.0000   336.0000 </r>
       <r>    16.6194    -0.0000   336.0000 </r>
       <r>    16.7085     0.0000   336.0000 </r>
       <r>    16.7976     0.0000   336.0000 </r>
       <r>    16.8867     0.0000   336.0000 </r>
       <r>    16.9758     0.0000   336.0000 </r>
       <r>    17.0649     0.0000   336.0000 </r>
       <r>    17.1540     0.0000   336.0000 </r>
       <r>    17.2431     0.0000   336.0000 </r>
       <r>    17.3322     0.0000   336.0000 </r>
      </set>
     </set>
    </array>
   </total>
  </dos>
 </calculation>
 <structure name="finalpos" >
  <crystal>
   <varray name="basis" >
    <v>       8.74331558       0.00000000       0.00000000 </v>
    <v>       0.00000000       8.74331558       0.00000000 </v>
    <v>       0.00000000       0.00000000       8.74331558 </v>
   </varray>
   <i name="volume">    668.38771987 </i>
   <varray name="rec_basis" >
    <v>       0.11437309       0.00000000       0.00000000 </v>
    <v>       0.00000000       0.11437309       0.00000000 </v>
    <v>       0.00000000       0.00000000       0.11437309 </v>
   </varray>
  </crystal>
  <varray name="positions" >
   <v>       0.12601717       0.12703114       0.12502363 </v>
   <v>       0.12345939       0.37866564       0.37814261 </v>
   <v>       0.37444686       0.12290569       0.37514547 </v>
   <v>       0.37607847       0.38127636       0.12394651 </v>
   <v>       0.12755637       0.12493943       0.62113371 </v>
   <v>       0.12688743       0.36623850       0.87716815 </v>
   <v>       0.37099603       0.12095424       0.87307494 </v>
   <v>       0.37054491       0.37477504       0.62683749 </v>
   <v>       0.11089577       0.61969255       0.12237089 </v>
   <v>       0.12610259       0.88043590       0.37262611 </v>
   <v>       0.37179748       0.62380518       0.37861882 </v>
   <v>       0.37599035       0.87183519       0.12163491 </v>
   <v>       0.12517250       0.61728794       0.62591189 </v>
   <v>       0.12852646       0.87389532       0.87760238 </v>
   <v>       0.37838567       0.63105598       0.87321117 </v>
   <v>       0.37002779       0.87493113       0.62678018 </v>
   <v>       0.62595276       0.12542202       0.12436208 </v>
   <v>       0.62504349       0.37138864       0.37959150 </v>
   <v>       0.87370371       0.12630219       0.37502955 </v>
   <v>       0.88447950       0.37281941       0.12589598 </v>
   <v>       0.61305529       0.13173957       0.61622847 </v>
   <v>       0.62093659       0.37715980       0.86931560 </v>
   <v>       0.87773802       0.11979567       0.86428044 </v>
   <v>       0.87271532       0.37690757       0.62677989 </v>
   <v>       0.62920782       0.62600916       0.13302774 </v>
   <v>       0.62400237       0.87552374       0.37711601 </v>
   <v>       0.87557547       0.61832172       0.36942018 </v>
   <v>       0.87528274       0.87900935       0.12138326 </v>
   <v>       0.62747396       0.62635454       0.63570064 </v>
   <v>       0.63007434       0.87457491       0.87995458 </v>
   <v>       0.86908508       0.62251714       0.88602181 </v>
   <v>       0.87562444       0.87517611       0.62876815 </v>
   <v>       0.99911779       0.99981084       0.99918604 </v>
   <v>       0.00649900       0.24298387       0.25296899 </v>
   <v>       0.24847161       0.99832561       0.25047406 </v>
   <v>       0.25279852       0.25230098       0.00105470 </v>
   <v>       0.00257635       0.99297793       0.50345509 </v>
   <v>       0.00314712       0.25602428       0.74823886 </v>
   <v>       0.23799936       0.99812823       0.75184370 </v>
   <v>       0.25076490       0.25043830       0.50185233 </v>
   <v>       0.00659723       0.49765809       0.99849046 </v>
   <v>       0.99871448       0.74673145       0.25669722 </v>
   <v>       0.25144783       0.49902449       0.24448882 </v>
   <v>       0.24264560       0.75529411       0.99555216 </v>
   <v>       0.99283418       0.51267292       0.50279158 </v>
   <v>       0.00838900       0.75327378       0.75275916 </v>
   <v>       0.25525954       0.50189990       0.74463086 </v>
   <v>       0.24624286       0.75240601       0.49896694 </v>
   <v>       0.49826995       0.99622273       0.99687831 </v>
   <v>       0.50602711       0.24987252       0.24483625 </v>
   <v>       0.74442821       0.00702146       0.25495018 </v>
   <v>       0.75415279       0.24782763       0.00065027 </v>
   <v>       0.49689301       0.99727482       0.50642688 </v>
   <v>       0.50091874       0.24535732       0.75299696 </v>
   <v>       0.74101236       0.99448175       0.74277790 </v>
   <v>       0.74914841       0.24604293       0.50389597 </v>
   <v>       0.49752817       0.49124355       0.00022141 </v>
   <v>       0.50619627       0.75859191       0.24968096 </v>
   <v>       0.75084218       0.49659658       0.24819832 </v>
   <v>       0.74483769       0.76466385       0.99875879 </v>
   <v>       0.48643607       0.48262780       0.49307813 </v>
   <v>       0.49218680       0.74839752       0.75695211 </v>
   <v>       0.74470794       0.50387614       0.74828838 </v>
   <v>       0.74547398       0.75633203       0.50091842 </v>
  </varray>
 </structure>
</modeling>
