unknown system                          
           1
     8.743316    0.000000    0.000000
     0.000000    8.743316    0.000000
     0.000000    0.000000    8.743316
   C    Si
    32    32
Direct configuration=     1
   0.12601717  0.12703114  0.12502363
   0.12345939  0.37866564  0.37814261
   0.37444686  0.12290569  0.37514547
   0.37607847  0.38127636  0.12394651
   0.12755637  0.12493943  0.62113371
   0.12688743  0.36623850  0.87716815
   0.37099603  0.12095424  0.87307494
   0.37054491  0.37477504  0.62683749
   0.11089577  0.61969255  0.12237089
   0.12610259  0.88043590  0.37262611
   0.37179748  0.62380518  0.37861882
   0.37599035  0.87183519  0.12163491
   0.12517250  0.61728794  0.62591189
   0.12852646  0.87389532  0.87760238
   0.37838567  0.63105598  0.87321117
   0.37002779  0.87493113  0.62678018
   0.62595276  0.12542202  0.12436208
   0.62504349  0.37138864  0.37959150
   0.87370371  0.12630219  0.37502955
   0.88447950  0.37281941  0.12589598
   0.61305529  0.13173957  0.61622847
   0.62093659  0.37715980  0.86931560
   0.87773802  0.11979567  0.86428044
   0.87271532  0.37690757  0.62677989
   0.62920782  0.62600916  0.13302774
   0.62400237  0.87552374  0.37711601
   0.87557547  0.61832172  0.36942018
   0.87528274  0.87900935  0.12138326
   0.62747396  0.62635454  0.63570064
   0.63007434  0.87457491  0.87995458
   0.86908508  0.62251714  0.88602181
   0.87562444  0.87517611  0.62876815
   0.99911779  0.99981084  0.99918604
   0.00649900  0.24298387  0.25296899
   0.24847161  0.99832561  0.25047406
   0.25279852  0.25230098  0.00105470
   0.00257635  0.99297793  0.50345509
   0.00314712  0.25602428  0.74823886
   0.23799936  0.99812823  0.75184370
   0.25076490  0.25043830  0.50185233
   0.00659723  0.49765809  0.99849046
   0.99871448  0.74673145  0.25669722
   0.25144783  0.49902449  0.24448882
   0.24264560  0.75529411  0.99555216
   0.99283418  0.51267292  0.50279158
   0.00838900  0.75327378  0.75275916
   0.25525954  0.50189990  0.74463086
   0.24624286  0.75240601  0.49896694
   0.49826995  0.99622273  0.99687831
   0.50602711  0.24987252  0.24483625
   0.74442821  0.00702146  0.25495018
   0.75415279  0.24782763  0.00065027
   0.49689301  0.99727482  0.50642688
   0.50091874  0.24535732  0.75299696
   0.74101236  0.99448175  0.74277790
   0.74914841  0.24604293  0.50389597
   0.49752817  0.49124355  0.00022141
   0.50619627  0.75859191  0.24968096
   0.75084218  0.49659658  0.24819832
   0.74483769  0.76466385  0.99875879
   0.48643607  0.48262780  0.49307813
   0.49218680  0.74839752  0.75695211
   0.74470794  0.50387614  0.74828838
   0.74547398  0.75633203  0.50091842
