       N       E                     dE             d eps       ncg     rms          rms(c)
DAV:   1     0.673230057327E+03    0.67323E+03   -0.99587E+04  4704   0.111E+03
DAV:   2    -0.459563876335E+03   -0.11328E+04   -0.10724E+04  5808   0.221E+02
DAV:   3    -0.535314536608E+03   -0.75751E+02   -0.75034E+02  5664   0.564E+01
DAV:   4    -0.537011915713E+03   -0.16974E+01   -0.16899E+01  5720   0.912E+00
DAV:   5    -0.537059112953E+03   -0.47197E-01   -0.47122E-01  5592   0.144E+00    0.497E+01
DAV:   6    -0.479219365755E+03    0.57840E+02   -0.19304E+02  5360   0.238E+01    0.221E+01
DAV:   7    -0.477922289744E+03    0.12971E+01   -0.16562E+01  5832   0.730E+00    0.988E+00
DAV:   8    -0.477684153032E+03    0.23814E+00   -0.11140E+00  5424   0.210E+00    0.287E+00
DAV:   9    -0.477666160124E+03    0.17993E-01   -0.17761E-01  5496   0.945E-01    0.504E-01
DAV:  10    -0.477668494697E+03   -0.23346E-02   -0.21251E-02  5608   0.334E-01    0.294E-01
DAV:  11    -0.477669737936E+03   -0.12432E-02   -0.30952E-03  5384   0.139E-01    0.134E-01
DAV:  12    -0.477670041496E+03   -0.30356E-03   -0.67359E-04  5280   0.643E-02    0.451E-02
DAV:  13    -0.477670068770E+03   -0.27274E-04   -0.12660E-04  5480   0.255E-02    0.110E-02
DAV:  14    -0.477670071485E+03   -0.27148E-05   -0.63510E-06  5648   0.651E-03    0.579E-03
DAV:  15    -0.477670073337E+03   -0.18516E-05   -0.34421E-06  5640   0.409E-03    0.300E-03
DAV:  16    -0.477670073825E+03   -0.48801E-06   -0.33462E-07  5768   0.154E-03    0.101E-03
DAV:  17    -0.477670074165E+03   -0.34071E-06   -0.90436E-08  5256   0.676E-04    0.660E-04
DAV:  18    -0.477670074194E+03   -0.28122E-07   -0.48354E-09  2792   0.200E-04    0.209E-04
DAV:  19    -0.477670074184E+03    0.96989E-08   -0.43256E-09  2712   0.172E-04
   1 F= -.47767007E+03 E0= -.47767400E+03  d E =0.117858E-01
