<?xml version="1.0" encoding="ISO-8859-1"?>
<modeling>
 <generator>
  <i name="program" type="string">vasp </i>
  <i name="version" type="string">6.2.1  </i>
  <i name="subversion" type="string">16May21 (build Jun 06 2020 10:27:25) complex                          parallel </i>
  <i name="platform" type="string">LinuxIFC </i>
  <i name="date" type="string">2024 01 25 </i>
  <i name="time" type="string">17:05:05 </i>
 </generator>
 <incar>
  <i type="int" name="NELM">    60</i>
  <i type="int" name="IBRION">     1</i>
  <i name="EDIFF">      0.00000001</i>
  <i type="int" name="NSW">     0</i>
  <i type="int" name="ISIF">     3</i>
  <i type="int" name="ISYM">     0</i>
  <i type="logical" name="LWAVE"> F  </i>
  <i type="logical" name="LCHARG"> F  </i>
  <i type="string" name="GGA">PE</i>
 </incar>
 <primitive_cell>
  <structure name="primitive_cell" >
   <crystal>
    <varray name="basis" >
     <v>       8.74331558       0.00000000       0.00000000 </v>
     <v>       0.00000000       8.74331558       0.00000000 </v>
     <v>       0.00000000       0.00000000       8.74331558 </v>
    </varray>
    <i name="volume">    668.38771987 </i>
    <varray name="rec_basis" >
     <v>       0.11437309       0.00000000       0.00000000 </v>
     <v>       0.00000000       0.11437309       0.00000000 </v>
     <v>       0.00000000       0.00000000       0.11437309 </v>
    </varray>
   </crystal>
   <varray name="positions" >
    <v>       0.12341608       0.12266945       0.12161588 </v>
    <v>       0.12941362       0.37707818       0.37351653 </v>
    <v>       0.38540400       0.13071894       0.37547441 </v>
    <v>       0.38273739       0.38144335       0.11845313 </v>
    <v>       0.12916817       0.12186521       0.61464563 </v>
    <v>       0.12165427       0.38282903       0.87533294 </v>
    <v>       0.37814099       0.13408799       0.87073840 </v>
    <v>       0.37650839       0.37734544       0.62463128 </v>
    <v>       0.12651893       0.62477883       0.12516365 </v>
    <v>       0.12451878       0.87872988       0.37706056 </v>
    <v>       0.37146275       0.62079159       0.37099277 </v>
    <v>       0.37994318       0.87816553       0.13045785 </v>
    <v>       0.12113078       0.63014962       0.61997097 </v>
    <v>       0.12093997       0.87454765       0.86993567 </v>
    <v>       0.36822890       0.62703263       0.88140254 </v>
    <v>       0.36636518       0.87609718       0.61985606 </v>
    <v>       0.62606178       0.12690514       0.12733980 </v>
    <v>       0.62494896       0.37241371       0.37152061 </v>
    <v>       0.87589887       0.11621358       0.37729203 </v>
    <v>       0.87993016       0.36892500       0.12186328 </v>
    <v>       0.62638197       0.12814932       0.62572399 </v>
    <v>       0.62178714       0.37730265       0.87787402 </v>
    <v>       0.88058078       0.12433613       0.87906988 </v>
    <v>       0.87363546       0.37568797       0.63035027 </v>
    <v>       0.62155957       0.63029481       0.12030407 </v>
    <v>       0.63028377       0.87524219       0.38156661 </v>
    <v>       0.87909247       0.62928977       0.36798795 </v>
    <v>       0.86727775       0.87029064       0.11727277 </v>
    <v>       0.62522131       0.63483832       0.61793088 </v>
    <v>       0.62581068       0.87589083       0.88292670 </v>
    <v>       0.87528003       0.62858171       0.87573581 </v>
    <v>       0.87106414       0.87904926       0.62667592 </v>
    <v>       0.99869902       0.00063824       0.99834613 </v>
    <v>       0.00208431       0.25039483       0.25133948 </v>
    <v>       0.25185530       0.99862419       0.24372802 </v>
    <v>       0.24773294       0.24704887       0.00717934 </v>
    <v>       0.00154661       0.99567559       0.49810616 </v>
    <v>       0.99970493       0.25944660       0.75226573 </v>
    <v>       0.24511005       0.99886695       0.75510574 </v>
    <v>       0.24893757       0.24355597       0.50207637 </v>
    <v>       0.99725207       0.50404040       0.00801111 </v>
    <v>       0.00103996       0.75230902       0.24785942 </v>
    <v>       0.24606377       0.49622399       0.25553576 </v>
    <v>       0.25633461       0.75099203       0.99564693 </v>
    <v>       0.99952497       0.49873878       0.49688733 </v>
    <v>       0.01181906       0.75474140       0.74698533 </v>
    <v>       0.25038068       0.49804002       0.74628496 </v>
    <v>       0.25169176       0.74367452       0.49856349 </v>
    <v>       0.50908644       0.01636271       0.00440388 </v>
    <v>       0.50140171       0.24314655       0.25152650 </v>
    <v>       0.74903764       0.00551799       0.25613104 </v>
    <v>       0.74965045       0.24689873       0.98833546 </v>
    <v>       0.50312137       0.99751461       0.50203775 </v>
    <v>       0.49368577       0.24056658       0.74797128 </v>
    <v>       0.74686793       0.00460656       0.75334880 </v>
    <v>       0.74647019       0.24106910       0.50977137 </v>
    <v>       0.49736202       0.48936001       0.99650343 </v>
    <v>       0.50189065       0.75331245       0.24694432 </v>
    <v>       0.74616412       0.48890950       0.25119624 </v>
    <v>       0.75215482       0.74986036       0.99636554 </v>
    <v>       0.51321700       0.49653903       0.50012779 </v>
    <v>       0.49918865       0.75970712       0.75134366 </v>
    <v>       0.75033297       0.50313309       0.75188471 </v>
    <v>       0.74661706       0.74752915       0.50431100 </v>
   </varray>
  </structure>
  <varray name="primitive_index" >
   <v type="int" >        1 </v>
   <v type="int" >        2 </v>
   <v type="int" >        3 </v>
   <v type="int" >        4 </v>
   <v type="int" >        5 </v>
   <v type="int" >        6 </v>
   <v type="int" >        7 </v>
   <v type="int" >        8 </v>
   <v type="int" >        9 </v>
   <v type="int" >       10 </v>
   <v type="int" >       11 </v>
   <v type="int" >       12 </v>
   <v type="int" >       13 </v>
   <v type="int" >       14 </v>
   <v type="int" >       15 </v>
   <v type="int" >       16 </v>
   <v type="int" >       17 </v>
   <v type="int" >       18 </v>
   <v type="int" >       19 </v>
   <v type="int" >       20 </v>
   <v type="int" >       21 </v>
   <v type="int" >       22 </v>
   <v type="int" >       23 </v>
   <v type="int" >       24 </v>
   <v type="int" >       25 </v>
   <v type="int" >       26 </v>
   <v type="int" >       27 </v>
   <v type="int" >       28 </v>
   <v type="int" >       29 </v>
   <v type="int" >       30 </v>
   <v type="int" >       31 </v>
   <v type="int" >       32 </v>
   <v type="int" >       33 </v>
   <v type="int" >       34 </v>
   <v type="int" >       35 </v>
   <v type="int" >       36 </v>
   <v type="int" >       37 </v>
   <v type="int" >       38 </v>
   <v type="int" >       39 </v>
   <v type="int" >       40 </v>
   <v type="int" >       41 </v>
   <v type="int" >       42 </v>
   <v type="int" >       43 </v>
   <v type="int" >       44 </v>
   <v type="int" >       45 </v>
   <v type="int" >       46 </v>
   <v type="int" >       47 </v>
   <v type="int" >       48 </v>
   <v type="int" >       49 </v>
   <v type="int" >       50 </v>
   <v type="int" >       51 </v>
   <v type="int" >       52 </v>
   <v type="int" >       53 </v>
   <v type="int" >       54 </v>
   <v type="int" >       55 </v>
   <v type="int" >       56 </v>
   <v type="int" >       57 </v>
   <v type="int" >       58 </v>
   <v type="int" >       59 </v>
   <v type="int" >       60 </v>
   <v type="int" >       61 </v>
   <v type="int" >       62 </v>
   <v type="int" >       63 </v>
   <v type="int" >       64 </v>
  </varray>
 </primitive_cell>
 <kpoints>
  <generation param="Monkhorst-Pack">
   <v type="int" name="divisions">       3        3        3 </v>
   <v name="usershift">      0.00000000       0.00000000       0.00000000 </v>
   <v name="genvec1">      0.33333333       0.00000000       0.00000000 </v>
   <v name="genvec2">      0.00000000       0.33333333       0.00000000 </v>
   <v name="genvec3">      0.00000000       0.00000000       0.33333333 </v>
   <v name="shift">      0.00000000       0.00000000       0.00000000 </v>
  </generation>
  <varray name="kpointlist" >
   <v>       0.00000000       0.00000000       0.00000000 </v>
   <v>       0.33333333       0.00000000       0.00000000 </v>
   <v>       0.00000000       0.33333333       0.00000000 </v>
   <v>       0.00000000       0.00000000       0.33333333 </v>
   <v>       0.33333333       0.33333333       0.00000000 </v>
   <v>       0.00000000       0.33333333       0.33333333 </v>
   <v>       0.33333333       0.00000000       0.33333333 </v>
   <v>      -0.33333333       0.33333333       0.00000000 </v>
   <v>      -0.33333333       0.00000000       0.33333333 </v>
   <v>       0.00000000      -0.33333333       0.33333333 </v>
   <v>       0.33333333       0.33333333       0.33333333 </v>
   <v>      -0.33333333       0.33333333       0.33333333 </v>
   <v>      -0.33333333      -0.33333333       0.33333333 </v>
   <v>       0.33333333      -0.33333333       0.33333333 </v>
  </varray>
  <varray name="weights" >
   <v>       0.03703704 </v>
   <v>       0.07407407 </v>
   <v>       0.07407407 </v>
   <v>       0.07407407 </v>
   <v>       0.07407407 </v>
   <v>       0.07407407 </v>
   <v>       0.07407407 </v>
   <v>       0.07407407 </v>
   <v>       0.07407407 </v>
   <v>       0.07407407 </v>
   <v>       0.07407407 </v>
   <v>       0.07407407 </v>
   <v>       0.07407407 </v>
   <v>       0.07407407 </v>
  </varray>
 </kpoints>
 <parameters>
  <separator name="general" >
   <i type="string" name="SYSTEM">unknown system</i>
   <i type="logical" name="LCOMPAT"> F  </i>
  </separator>
  <separator name="electronic" >
   <i type="string" name="PREC">normal</i>
   <i name="ENMAX">    400.00000000</i>
   <i name="ENAUG">    644.87300000</i>
   <i name="EDIFF">      0.00000001</i>
   <i type="int" name="IALGO">    38</i>
   <i type="int" name="IWAVPR">    10</i>
   <i type="int" name="NBANDS">   168</i>
   <i type="int" name="NBANDSLOW">    -1</i>
   <i type="int" name="NBANDSHIGH">    -1</i>
   <i name="NELECT">    256.00000000</i>
   <i type="int" name="TURBO">     0</i>
   <i type="int" name="IRESTART">     0</i>
   <i type="int" name="NREBOOT">     0</i>
   <i type="int" name="NMIN">     0</i>
   <i name="EREF">      0.00000000</i>
   <separator name="electronic smearing" >
    <i type="int" name="ISMEAR">     1</i>
    <i name="SIGMA">      0.20000000</i>
    <i name="KSPACING">      0.50000000</i>
    <i type="logical" name="KGAMMA"> T  </i>
    <i type="logical" name="KBLOWUP"> T  </i>
   </separator>
   <separator name="electronic projectors" >
    <i type="logical" name="LREAL"> F  </i>
    <v name="ROPT">      0.00000000      0.00000000</v>
    <i type="int" name="LMAXPAW">  -100</i>
    <i type="int" name="LMAXMIX">     2</i>
    <i type="logical" name="NLSPLINE"> F  </i>
   </separator>
   <separator name="electronic startup" >
    <i type="int" name="ISTART">     0</i>
    <i type="int" name="ICHARG">     2</i>
    <i type="int" name="INIWAV">     1</i>
   </separator>
   <separator name="electronic spin" >
    <i type="int" name="ISPIN">     1</i>
    <i type="logical" name="LNONCOLLINEAR"> F  </i>
    <v name="MAGMOM">      1.00000000      1.00000000      1.00000000      1.00000000      1.00000000      1.00000000      1.00000000      1.00000000      1.00000000      1.00000000      1.00000000      1.00000000      1.00000000      1.00000000      1.00000000      1.00000000      1.00000000      1.00000000      1.00000000      1.00000000
      1.00000000      1.00000000      1.00000000      1.00000000      1.00000000      1.00000000      1.00000000      1.00000000      1.00000000      1.00000000      1.00000000      1.00000000      1.00000000      1.00000000      1.00000000      1.00000000      1.00000000      1.00000000      1.00000000      1.00000000
      1.00000000      1.00000000      1.00000000      1.00000000      1.00000000      1.00000000      1.00000000      1.00000000      1.00000000      1.00000000      1.00000000      1.00000000      1.00000000      1.00000000      1.00000000      1.00000000      1.00000000      1.00000000      1.00000000      1.00000000
      1.00000000      1.00000000      1.00000000      1.00000000</v>
    <i name="NUPDOWN">     -1.00000000</i>
    <i type="logical" name="LSORBIT"> F  </i>
    <v name="SAXIS">      0.00000000      0.00000000      1.00000000</v>
    <i type="logical" name="LSPIRAL"> F  </i>
    <v name="QSPIRAL">      0.00000000      0.00000000      0.00000000</v>
    <i type="logical" name="LZEROZ"> F  </i>
   </separator>
   <separator name="electronic exchange-correlation" >
    <i type="logical" name="LASPH"> F  </i>
    <i type="logical" name="LMETAGGA"> F  </i>
   </separator>
   <separator name="electronic convergence" >
    <i type="int" name="NELM">    60</i>
    <i type="int" name="NELMDL">    -5</i>
    <i type="int" name="NELMIN">     2</i>
    <i name="ENINI">    400.00000000</i>
    <separator name="electronic convergence detail" >
     <i type="logical" name="LDIAG"> T  </i>
     <i type="logical" name="LSUBROT"> F  </i>
     <i name="WEIMIN">      0.00000000</i>
     <i name="EBREAK">      0.00000000</i>
     <i name="DEPER">      0.30000000</i>
     <i type="int" name="NRMM">     4</i>
     <i name="TIME">      0.40000000</i>
    </separator>
   </separator>
   <separator name="electronic mixer" >
    <i name="AMIX">      0.40000000</i>
    <i name="BMIX">      1.00000000</i>
    <i name="AMIN">      0.10000000</i>
    <i name="AMIX_MAG">      1.60000000</i>
    <i name="BMIX_MAG">      1.00000000</i>
    <separator name="electronic mixer details" >
     <i type="int" name="IMIX">     4</i>
     <i type="logical" name="MIXFIRST"> F  </i>
     <i type="int" name="MAXMIX">   -45</i>
     <i name="WC">    100.00000000</i>
     <i type="int" name="INIMIX">     1</i>
     <i type="int" name="MIXPRE">     1</i>
     <i type="int" name="MREMOVE">     5</i>
    </separator>
   </separator>
   <separator name="electronic dipolcorrection" >
    <i type="logical" name="LDIPOL"> F  </i>
    <i type="logical" name="LMONO"> F  </i>
    <i type="int" name="IDIPOL">     0</i>
    <i name="EPSILON">      1.00000000</i>
    <v name="DIPOL">   -100.00000000   -100.00000000   -100.00000000</v>
    <i name="EFIELD">      0.00000000</i>
   </separator>
  </separator>
  <separator name="grids" >
   <i type="int" name="NGX">    48</i>
   <i type="int" name="NGY">    48</i>
   <i type="int" name="NGZ">    48</i>
   <i type="int" name="NGXF">    96</i>
   <i type="int" name="NGYF">    96</i>
   <i type="int" name="NGZF">    96</i>
   <i type="logical" name="ADDGRID"> F  </i>
  </separator>
  <separator name="ionic" >
   <i type="int" name="NSW">     0</i>
   <i type="int" name="IBRION">    -1</i>
   <i type="int" name="MDALGO">     0</i>
   <i type="int" name="ISIF">     3</i>
   <i name="PSTRESS">      0.00000000</i>
   <i name="EDIFFG">      0.00000010</i>
   <i type="int" name="NFREE">     0</i>
   <i name="POTIM">      0.50000000</i>
   <i name="SMASS">     -3.00000000</i>
   <i name="SCALEE">      1.00000000</i>
  </separator>
  <separator name="ionic md" >
   <i name="TEBEG">      0.00010000</i>
   <i name="TEEND">      0.00010000</i>
   <i type="int" name="NBLOCK">     1</i>
   <i type="int" name="KBLOCK">     1</i>
   <i type="int" name="NPACO">   256</i>
   <i name="APACO">     16.00000000</i>
  </separator>
  <separator name="symmetry" >
   <i type="int" name="ISYM">     0</i>
   <i name="SYMPREC">      0.00001000</i>
  </separator>
  <separator name="dos" >
   <i type="int" name="LORBIT">     0</i>
   <v name="RWIGS">     -1.00000000     -1.00000000</v>
   <i type="int" name="NEDOS">   301</i>
   <i name="EMIN">     10.00000000</i>
   <i name="EMAX">    -10.00000000</i>
   <i name="EFERMI">      0.00000000</i>
  </separator>
  <separator name="writing" >
   <i type="int" name="NWRITE">     2</i>
   <i type="logical" name="LWAVE"> F  </i>
   <i type="logical" name="LDOWNSAMPLE"> F  </i>
   <i type="logical" name="LCHARG"> F  </i>
   <i type="logical" name="LPARD"> F  </i>
   <i type="logical" name="LVTOT"> F  </i>
   <i type="logical" name="LVHAR"> F  </i>
   <i type="logical" name="LELF"> F  </i>
   <i type="logical" name="LOPTICS"> F  </i>
   <v name="STM">      0.00000000      0.00000000      0.00000000      0.00000000      0.00000000      0.00000000      0.00000000</v>
  </separator>
  <separator name="performance" >
   <i type="int" name="NPAR">     8</i>
   <i type="int" name="NSIM">     4</i>
   <i type="int" name="NBLK">    -1</i>
   <i type="logical" name="LPLANE"> T  </i>
   <i type="logical" name="LSCALAPACK"> T  </i>
   <i type="logical" name="LSCAAWARE"> F  </i>
   <i type="logical" name="LSCALU"> F  </i>
   <i type="logical" name="LASYNC"> F  </i>
   <i type="logical" name="LORBITALREAL"> F  </i>
  </separator>
  <separator name="miscellaneous" >
   <i type="int" name="IDIOT">     3</i>
   <i type="int" name="PHON_NSTRUCT">    -1</i>
   <i type="logical" name="LMUSIC"> F  </i>
   <v name="POMASS">     12.01100000     28.08500000</v>
   <v name="DARWINR">      0.00000000      0.00000000</v>
   <v name="DARWINV">      1.00000000      1.00000000</v>
   <i type="logical" name="LCORR"> T  </i>
  </separator>
  <i type="logical" name="GGA_COMPAT"> T  </i>
  <i type="logical" name="LBERRY"> F  </i>
  <i type="int" name="ICORELEVEL">     0</i>
  <i type="logical" name="LDAU"> F  </i>
  <i type="int" name="I_CONSTRAINED_M">     0</i>
  <separator name="electronic exchange-correlation" >
   <i type="string" name="GGA">PE</i>
   <i type="int" name="VOSKOWN">     0</i>
   <i type="logical" name="LHFCALC"> F  </i>
   <i type="string" name="PRECFOCK"></i>
   <i type="logical" name="LSYMGRAD"> F  </i>
   <i type="logical" name="LHFONE"> F  </i>
   <i type="logical" name="LRHFCALC"> F  </i>
   <i type="logical" name="LTHOMAS"> F  </i>
   <i type="logical" name="LMODELHF"> F  </i>
   <i type="logical" name="LFOCKACE"> F  </i>
   <i name="ENCUT4O">     -1.00000000</i>
   <i type="int" name="EXXOEP">     0</i>
   <i type="int" name="FOURORBIT">     0</i>
   <i name="AEXX">      0.00000000</i>
   <i name="HFALPHA">      0.00000000</i>
   <i name="MCALPHA">      0.00000000</i>
   <i name="ALDAX">      1.00000000</i>
   <i name="AGGAX">      1.00000000</i>
   <i name="ALDAC">      1.00000000</i>
   <i name="AGGAC">      1.00000000</i>
   <i type="int" name="NKREDX">     1</i>
   <i type="int" name="NKREDY">     1</i>
   <i type="int" name="NKREDZ">     1</i>
   <i type="logical" name="SHIFTRED"> F  </i>
   <i type="logical" name="ODDONLY"> F  </i>
   <i type="logical" name="EVENONLY"> F  </i>
   <i type="int" name="LMAXFOCK">     0</i>
   <i type="int" name="NMAXFOCKAE">     0</i>
   <i type="logical" name="LFOCKAEDFT"> F  </i>
   <i name="HFSCREEN">      0.00000000</i>
   <i name="HFSCREENC">      0.00000000</i>
   <i type="int" name="NBANDSGWLOW">     0</i>
  </separator>
  <separator name="vdW DFT" >
   <i type="logical" name="LUSE_VDW"> F  </i>
   <i name="Zab_VDW">     -0.84910000</i>
   <i name="PARAM1">      0.12340000</i>
   <i name="PARAM2">      1.00000000</i>
   <i name="PARAM3">      0.00000000</i>
  </separator>
  <separator name="model GW" >
   <i type="int" name="MODEL_GW">     0</i>
   <i name="MODEL_EPS0">      6.26613487</i>
   <i name="MODEL_ALPHA">      1.00000000</i>
  </separator>
  <separator name="linear response parameters" >
   <i type="logical" name="LEPSILON"> F  </i>
   <i type="logical" name="LRPA"> F  </i>
   <i type="logical" name="LNABLA"> F  </i>
   <i type="logical" name="LVEL"> F  </i>
   <i type="int" name="KINTER">     0</i>
   <i name="CSHIFT">      0.10000000</i>
   <i name="OMEGAMAX">     -1.00000000</i>
   <i name="DEG_THRESHOLD">      0.00200000</i>
   <i name="RTIME">     -0.10000000</i>
   <i name="WPLASMAI">      0.00000000</i>
   <v name="DFIELD">      0.00000000      0.00000000      0.00000000</v>
   <v name="WPLASMA">      0.00000000      0.00000000      0.00000000      0.00000000      0.00000000      0.00000000      0.00000000      0.00000000      0.00000000</v>
  </separator>
  <separator name="orbital magnetization" >
   <i type="logical" name="NUCIND"> F  </i>
   <v name="MAGPOS">      0.00000000      0.00000000      0.00000000</v>
   <i type="logical" name="LNICSALL"> T  </i>
   <i type="logical" name="ORBITALMAG"> F  </i>
   <i type="logical" name="LMAGBLOCH"> F  </i>
   <i type="logical" name="LCHIMAG"> F  </i>
   <i type="logical" name="LGAUGE"> T  </i>
   <i type="int" name="MAGATOM">     0</i>
   <v name="MAGDIPOL">      0.00000000      0.00000000      0.00000000</v>
   <v name="AVECCONST">      0.00000000      0.00000000      0.00000000</v>
  </separator>
  <separator name="response functions" >
   <i type="logical" name="LFINITE_TEMPERATURE"> F  </i>
   <i type="logical" name="LADDER"> F  </i>
   <i type="logical" name="LRPAFORCE"> F  </i>
   <i type="logical" name="LFXC"> F  </i>
   <i type="logical" name="LHARTREE"> T  </i>
   <i type="int" name="IBSE">     0</i>
   <v type="int" name="KPOINT">    -1     0     0     0</v>
   <i type="logical" name="LTCTC"> F  </i>
   <i type="logical" name="LTCTE"> F  </i>
   <i type="logical" name="LTETE"> F  </i>
   <i type="logical" name="LTRIPLET"> F  </i>
   <i type="logical" name="LFXCEPS"> F  </i>
   <i type="logical" name="LFXHEG"> F  </i>
   <i type="int" name="NATURALO">     2</i>
   <i type="logical" name="LHOLEGF"> F  </i>
   <i type="logical" name="L2ORDER"> F  </i>
   <i type="logical" name="LDMP1"> F  </i>
   <i type="logical" name="LMP2LT"> F  </i>
   <i type="logical" name="LSMP2LT"> F  </i>
   <i type="logical" name="LGWLF"> F  </i>
   <i name="ENCUTGW">     -2.00000000</i>
   <i name="ENCUTGWSOFT">     -2.00000000</i>
   <i name="ENCUTLF">     -1.00000000</i>
   <i type="logical" name="LESF_SPLINES"> F  </i>
   <i type="int" name="LMAXMP2">    -1</i>
   <i name="SCISSOR">      0.00000000</i>
   <i type="int" name="NOMEGA">     0</i>
   <i type="int" name="NOMEGAR">     0</i>
   <i type="int" name="NBANDSGW">    -1</i>
   <i type="int" name="NBANDSO">    -1</i>
   <i type="int" name="NBANDSV">    -1</i>
   <i type="int" name="NELM">    60</i>
   <i type="int" name="NELMHF">     1</i>
   <i type="int" name="DIM">     3</i>
   <i type="int" name="IESPILON">     4</i>
   <i type="int" name="ANTIRES">     0</i>
   <i name="OMEGAMAX">    -30.00000000</i>
   <i name="OMEGAMIN">    -30.00000000</i>
   <i name="OMEGATL">   -200.00000000</i>
   <i type="int" name="OMEGAGRID">     0</i>
   <i name="CSHIFT">     -0.10000000</i>
   <i type="logical" name="LSELFENERGY"> F  </i>
   <i type="logical" name="LSPECTRAL"> F  </i>
   <i type="logical" name="LSPECTRALGW"> F  </i>
   <i type="logical" name="LSINGLES"> F  </i>
   <i type="logical" name="LFERMIGW"> F  </i>
   <i type="logical" name="ODDONLYGW"> F  </i>
   <i type="logical" name="EVENONLYGW"> F  </i>
   <i type="int" name="NKREDLFX">     1</i>
   <i type="int" name="NKREDLFY">     1</i>
   <i type="int" name="NKREDLFZ">     1</i>
   <i type="int" name="MAXMEM">  2800</i>
   <i type="int" name="TELESCOPE">     0</i>
   <i type="int" name="NTAUPAR">    -1</i>
   <i type="int" name="NOMEGAPAR">    -1</i>
   <i name="DAMP_NEWTON">      0.80000001</i>
   <i name="LAMBDA">      1.00000000</i>
  </separator>
  <separator name="External order field" >
   <i name="OFIELD_KAPPA">      0.00000000</i>
   <v name="OFIELD_K">      0.00000000      0.00000000      0.00000000</v>
   <i name="OFIELD_Q6_NEAR">      0.00000000</i>
   <i name="OFIELD_Q6_FAR">      0.00000000</i>
   <i name="OFIELD_A">      0.00000000</i>
  </separator>
 </parameters>
 <atominfo>
  <atoms>      64 </atoms>
  <types>       2 </types>
  <array name="atoms" >
   <dimension dim="1">ion</dimension>
   <field type="string">element</field>
   <field type="int">atomtype</field>
   <set>
    <rc><c>C </c><c>   1</c></rc>
    <rc><c>C </c><c>   1</c></rc>
    <rc><c>C </c><c>   1</c></rc>
    <rc><c>C </c><c>   1</c></rc>
    <rc><c>C </c><c>   1</c></rc>
    <rc><c>C </c><c>   1</c></rc>
    <rc><c>C </c><c>   1</c></rc>
    <rc><c>C </c><c>   1</c></rc>
    <rc><c>C </c><c>   1</c></rc>
    <rc><c>C </c><c>   1</c></rc>
    <rc><c>C </c><c>   1</c></rc>
    <rc><c>C </c><c>   1</c></rc>
    <rc><c>C </c><c>   1</c></rc>
    <rc><c>C </c><c>   1</c></rc>
    <rc><c>C </c><c>   1</c></rc>
    <rc><c>C </c><c>   1</c></rc>
    <rc><c>C </c><c>   1</c></rc>
    <rc><c>C </c><c>   1</c></rc>
    <rc><c>C </c><c>   1</c></rc>
    <rc><c>C </c><c>   1</c></rc>
    <rc><c>C </c><c>   1</c></rc>
    <rc><c>C </c><c>   1</c></rc>
    <rc><c>C </c><c>   1</c></rc>
    <rc><c>C </c><c>   1</c></rc>
    <rc><c>C </c><c>   1</c></rc>
    <rc><c>C </c><c>   1</c></rc>
    <rc><c>C </c><c>   1</c></rc>
    <rc><c>C </c><c>   1</c></rc>
    <rc><c>C </c><c>   1</c></rc>
    <rc><c>C </c><c>   1</c></rc>
    <rc><c>C </c><c>   1</c></rc>
    <rc><c>C </c><c>   1</c></rc>
    <rc><c>Si</c><c>   2</c></rc>
    <rc><c>Si</c><c>   2</c></rc>
    <rc><c>Si</c><c>   2</c></rc>
    <rc><c>Si</c><c>   2</c></rc>
    <rc><c>Si</c><c>   2</c></rc>
    <rc><c>Si</c><c>   2</c></rc>
    <rc><c>Si</c><c>   2</c></rc>
    <rc><c>Si</c><c>   2</c></rc>
    <rc><c>Si</c><c>   2</c></rc>
    <rc><c>Si</c><c>   2</c></rc>
    <rc><c>Si</c><c>   2</c></rc>
    <rc><c>Si</c><c>   2</c></rc>
    <rc><c>Si</c><c>   2</c></rc>
    <rc><c>Si</c><c>   2</c></rc>
    <rc><c>Si</c><c>   2</c></rc>
    <rc><c>Si</c><c>   2</c></rc>
    <rc><c>Si</c><c>   2</c></rc>
    <rc><c>Si</c><c>   2</c></rc>
    <rc><c>Si</c><c>   2</c></rc>
    <rc><c>Si</c><c>   2</c></rc>
    <rc><c>Si</c><c>   2</c></rc>
    <rc><c>Si</c><c>   2</c></rc>
    <rc><c>Si</c><c>   2</c></rc>
    <rc><c>Si</c><c>   2</c></rc>
    <rc><c>Si</c><c>   2</c></rc>
    <rc><c>Si</c><c>   2</c></rc>
    <rc><c>Si</c><c>   2</c></rc>
    <rc><c>Si</c><c>   2</c></rc>
    <rc><c>Si</c><c>   2</c></rc>
    <rc><c>Si</c><c>   2</c></rc>
    <rc><c>Si</c><c>   2</c></rc>
    <rc><c>Si</c><c>   2</c></rc>
   </set>
  </array>
  <array name="atomtypes" >
   <dimension dim="1">type</dimension>
   <field type="int">atomspertype</field>
   <field type="string">element</field>
   <field>mass</field>
   <field>valence</field>
   <field type="string">pseudopotential</field>
   <set>
    <rc><c>  32</c><c>C </c><c>     12.01100000</c><c>      4.00000000</c><c>  PAW_PBE C 08Apr2002                   </c></rc>
    <rc><c>  32</c><c>Si</c><c>     28.08500000</c><c>      4.00000000</c><c>  PAW_PBE Si 05Jan2001                  </c></rc>
   </set>
  </array>
 </atominfo>
 <structure name="initialpos" >
  <crystal>
   <varray name="basis" >
    <v>       8.74331558       0.00000000       0.00000000 </v>
    <v>       0.00000000       8.74331558       0.00000000 </v>
    <v>       0.00000000       0.00000000       8.74331558 </v>
   </varray>
   <i name="volume">    668.38771987 </i>
   <varray name="rec_basis" >
    <v>       0.11437309       0.00000000       0.00000000 </v>
    <v>       0.00000000       0.11437309       0.00000000 </v>
    <v>       0.00000000       0.00000000       0.11437309 </v>
   </varray>
  </crystal>
  <varray name="positions" >
   <v>       0.12341608       0.12266945       0.12161588 </v>
   <v>       0.12941362       0.37707818       0.37351653 </v>
   <v>       0.38540400       0.13071894       0.37547441 </v>
   <v>       0.38273739       0.38144335       0.11845313 </v>
   <v>       0.12916817       0.12186521       0.61464563 </v>
   <v>       0.12165427       0.38282903       0.87533294 </v>
   <v>       0.37814099       0.13408799       0.87073840 </v>
   <v>       0.37650839       0.37734544       0.62463128 </v>
   <v>       0.12651893       0.62477883       0.12516365 </v>
   <v>       0.12451878       0.87872988       0.37706056 </v>
   <v>       0.37146275       0.62079159       0.37099277 </v>
   <v>       0.37994318       0.87816553       0.13045785 </v>
   <v>       0.12113078       0.63014962       0.61997097 </v>
   <v>       0.12093997       0.87454765       0.86993567 </v>
   <v>       0.36822890       0.62703263       0.88140254 </v>
   <v>       0.36636518       0.87609718       0.61985606 </v>
   <v>       0.62606178       0.12690514       0.12733980 </v>
   <v>       0.62494896       0.37241371       0.37152061 </v>
   <v>       0.87589887       0.11621358       0.37729203 </v>
   <v>       0.87993016       0.36892500       0.12186328 </v>
   <v>       0.62638197       0.12814932       0.62572399 </v>
   <v>       0.62178714       0.37730265       0.87787402 </v>
   <v>       0.88058078       0.12433613       0.87906988 </v>
   <v>       0.87363546       0.37568797       0.63035027 </v>
   <v>       0.62155957       0.63029481       0.12030407 </v>
   <v>       0.63028377       0.87524219       0.38156661 </v>
   <v>       0.87909247       0.62928977       0.36798795 </v>
   <v>       0.86727775       0.87029064       0.11727277 </v>
   <v>       0.62522131       0.63483832       0.61793088 </v>
   <v>       0.62581068       0.87589083       0.88292670 </v>
   <v>       0.87528003       0.62858171       0.87573581 </v>
   <v>       0.87106414       0.87904926       0.62667592 </v>
   <v>       0.99869902       0.00063824       0.99834613 </v>
   <v>       0.00208431       0.25039483       0.25133948 </v>
   <v>       0.25185530       0.99862419       0.24372802 </v>
   <v>       0.24773294       0.24704887       0.00717934 </v>
   <v>       0.00154661       0.99567559       0.49810616 </v>
   <v>       0.99970493       0.25944660       0.75226573 </v>
   <v>       0.24511005       0.99886695       0.75510574 </v>
   <v>       0.24893757       0.24355597       0.50207637 </v>
   <v>       0.99725207       0.50404040       0.00801111 </v>
   <v>       0.00103996       0.75230902       0.24785942 </v>
   <v>       0.24606377       0.49622399       0.25553576 </v>
   <v>       0.25633461       0.75099203       0.99564693 </v>
   <v>       0.99952497       0.49873878       0.49688733 </v>
   <v>       0.01181906       0.75474140       0.74698533 </v>
   <v>       0.25038068       0.49804002       0.74628496 </v>
   <v>       0.25169176       0.74367452       0.49856349 </v>
   <v>       0.50908644       0.01636271       0.00440388 </v>
   <v>       0.50140171       0.24314655       0.25152650 </v>
   <v>       0.74903764       0.00551799       0.25613104 </v>
   <v>       0.74965045       0.24689873       0.98833546 </v>
   <v>       0.50312137       0.99751461       0.50203775 </v>
   <v>       0.49368577       0.24056658       0.74797128 </v>
   <v>       0.74686793       0.00460656       0.75334880 </v>
   <v>       0.74647019       0.24106910       0.50977137 </v>
   <v>       0.49736202       0.48936001       0.99650343 </v>
   <v>       0.50189065       0.75331245       0.24694432 </v>
   <v>       0.74616412       0.48890950       0.25119624 </v>
   <v>       0.75215482       0.74986036       0.99636554 </v>
   <v>       0.51321700       0.49653903       0.50012779 </v>
   <v>       0.49918865       0.75970712       0.75134366 </v>
   <v>       0.75033297       0.50313309       0.75188471 </v>
   <v>       0.74661706       0.74752915       0.50431100 </v>
  </varray>
 </structure>
 <calculation>
  <scstep>
   <time name="dav">   19.61   19.96</time>
   <time name="total">   19.98   20.33</time>
   <energy>
    <i name="alphaZ">    354.85177120 </i>
    <i name="ewald">  -9069.53989078 </i>
    <i name="hartreedc">   -676.72793849 </i>
    <i name="XCdc">    145.94724437 </i>
    <i name="pawpsdc">   6292.66707184 </i>
    <i name="pawaedc">  -5747.90303932 </i>
    <i name="eentropy">     -0.00546393 </i>
    <i name="bandstr">   1367.76525923 </i>
    <i name="atom">   8006.17504320 </i>
    <i name="e_fr_energy">    673.23005733 </i>
    <i name="e_wo_entrp">    673.23552126 </i>
    <i name="e_0_energy">    673.23187864 </i>
   </energy>
  </scstep>
  <scstep>
   <time name="dav">   21.08   21.12</time>
   <time name="total">   21.09   21.13</time>
   <energy>
    <i name="e_fr_energy">   -459.56387634 </i>
    <i name="e_wo_entrp">   -459.56605140 </i>
    <i name="e_0_energy">   -459.56460136 </i>
   </energy>
  </scstep>
  <scstep>
   <time name="dav">   17.13   17.17</time>
   <time name="total">   17.14   17.18</time>
   <energy>
    <i name="e_fr_energy">   -535.31453661 </i>
    <i name="e_wo_entrp">   -535.33638321 </i>
    <i name="e_0_energy">   -535.32181881 </i>
   </energy>
  </scstep>
  <scstep>
   <time name="dav">   17.02   17.13</time>
   <time name="total">   17.02   17.13</time>
   <energy>
    <i name="e_fr_energy">   -537.01191571 </i>
    <i name="e_wo_entrp">   -537.03468015 </i>
    <i name="e_0_energy">   -537.01950386 </i>
   </energy>
  </scstep>
  <scstep>
   <time name="dav">   15.68   15.73</time>
   <time name="total">   15.92   15.97</time>
   <energy>
    <i name="e_fr_energy">   -537.05911295 </i>
    <i name="e_wo_entrp">   -537.08192469 </i>
    <i name="e_0_energy">   -537.06671687 </i>
   </energy>
  </scstep>
  <scstep>
   <time name="dav">   15.91   15.95</time>
   <time name="total">   16.31   16.38</time>
   <energy>
    <i name="e_fr_energy">   -479.21936576 </i>
    <i name="e_wo_entrp">   -479.23238968 </i>
    <i name="e_0_energy">   -479.22370706 </i>
   </energy>
  </scstep>
  <scstep>
   <time name="dav">   16.62   16.83</time>
   <time name="total">   17.17   17.39</time>
   <energy>
    <i name="e_fr_energy">   -477.92228974 </i>
    <i name="e_wo_entrp">   -477.93398437 </i>
    <i name="e_0_energy">   -477.92618795 </i>
   </energy>
  </scstep>
  <scstep>
   <time name="dav">   16.53   16.55</time>
   <time name="total">   17.17   17.26</time>
   <energy>
    <i name="e_fr_energy">   -477.68415303 </i>
    <i name="e_wo_entrp">   -477.69592970 </i>
    <i name="e_0_energy">   -477.68807859 </i>
   </energy>
  </scstep>
  <scstep>
   <time name="dav">   15.72   15.75</time>
   <time name="total">   16.05   16.08</time>
   <energy>
    <i name="e_fr_energy">   -477.66616012 </i>
    <i name="e_wo_entrp">   -477.67790344 </i>
    <i name="e_0_energy">   -477.67007456 </i>
   </energy>
  </scstep>
  <scstep>
   <time name="dav">   16.84   16.87</time>
   <time name="total">   17.18   17.23</time>
   <energy>
    <i name="e_fr_energy">   -477.66849470 </i>
    <i name="e_wo_entrp">   -477.68031195 </i>
    <i name="e_0_energy">   -477.67243378 </i>
   </energy>
  </scstep>
  <scstep>
   <time name="dav">   16.30   16.33</time>
   <time name="total">   16.79   16.84</time>
   <energy>
    <i name="e_fr_energy">   -477.66973794 </i>
    <i name="e_wo_entrp">   -477.68153305 </i>
    <i name="e_0_energy">   -477.67366964 </i>
   </energy>
  </scstep>
  <scstep>
   <time name="dav">   16.40   16.45</time>
   <time name="total">   16.94   17.22</time>
   <energy>
    <i name="e_fr_energy">   -477.67004150 </i>
    <i name="e_wo_entrp">   -477.68182430 </i>
    <i name="e_0_energy">   -477.67396910 </i>
   </energy>
  </scstep>
  <scstep>
   <time name="dav">   17.14   17.20</time>
   <time name="total">   17.48   17.54</time>
   <energy>
    <i name="e_fr_energy">   -477.67006877 </i>
    <i name="e_wo_entrp">   -477.68185456 </i>
    <i name="e_0_energy">   -477.67399737 </i>
   </energy>
  </scstep>
  <scstep>
   <time name="dav">   17.39   17.42</time>
   <time name="total">   17.76   17.80</time>
   <energy>
    <i name="e_fr_energy">   -477.67007149 </i>
    <i name="e_wo_entrp">   -477.68185710 </i>
    <i name="e_0_energy">   -477.67400002 </i>
   </energy>
  </scstep>
  <scstep>
   <time name="dav">   18.71   18.74</time>
   <time name="total">   19.33   19.37</time>
   <energy>
    <i name="e_fr_energy">   -477.67007334 </i>
    <i name="e_wo_entrp">   -477.68185918 </i>
    <i name="e_0_energy">   -477.67400195 </i>
   </energy>
  </scstep>
  <scstep>
   <time name="dav">   18.05   18.08</time>
   <time name="total">   18.68   18.75</time>
   <energy>
    <i name="e_fr_energy">   -477.67007382 </i>
    <i name="e_wo_entrp">   -477.68185974 </i>
    <i name="e_0_energy">   -477.67400246 </i>
   </energy>
  </scstep>
  <scstep>
   <time name="dav">   15.16   15.21</time>
   <time name="total">   15.50   15.55</time>
   <energy>
    <i name="e_fr_energy">   -477.67007417 </i>
    <i name="e_wo_entrp">   -477.68185995 </i>
    <i name="e_0_energy">   -477.67400276 </i>
   </energy>
  </scstep>
  <scstep>
   <time name="dav">   12.72   12.78</time>
   <time name="total">   13.25   13.38</time>
   <energy>
    <i name="e_fr_energy">   -477.67007419 </i>
    <i name="e_wo_entrp">   -477.68185996 </i>
    <i name="e_0_energy">   -477.67400278 </i>
   </energy>
  </scstep>
  <scstep>
   <time name="dav">    9.71    9.74</time>
   <time name="total">    9.99   10.03</time>
   <energy>
    <i name="alphaZ">    354.85177120 </i>
    <i name="ewald">  -9069.53989078 </i>
    <i name="hartreedc">  -1031.14442661 </i>
    <i name="XCdc">    179.44904664 </i>
    <i name="pawpsdc">  33372.94615557 </i>
    <i name="pawaedc"> -32833.99982426 </i>
    <i name="eentropy">      0.01178579 </i>
    <i name="bandstr">    543.58026506 </i>
    <i name="atom">   8006.17504320 </i>
    <i name="e_fr_energy">   -477.67007418 </i>
    <i name="e_wo_entrp">   -477.68185997 </i>
    <i name="e_0_energy">   -477.67400278 </i>
   </energy>
  </scstep>
  <structure>
   <crystal>
    <varray name="basis" >
     <v>       8.74331558       0.00000000       0.00000000 </v>
     <v>       0.00000000       8.74331558       0.00000000 </v>
     <v>       0.00000000       0.00000000       8.74331558 </v>
    </varray>
    <i name="volume">    668.38771987 </i>
    <varray name="rec_basis" >
     <v>       0.11437309       0.00000000       0.00000000 </v>
     <v>       0.00000000       0.11437309       0.00000000 </v>
     <v>       0.00000000       0.00000000       0.11437309 </v>
    </varray>
   </crystal>
   <varray name="positions" >
    <v>       0.12341608       0.12266945       0.12161588 </v>
    <v>       0.12941362       0.37707818       0.37351653 </v>
    <v>       0.38540400       0.13071894       0.37547441 </v>
    <v>       0.38273739       0.38144335       0.11845313 </v>
    <v>       0.12916817       0.12186521       0.61464563 </v>
    <v>       0.12165427       0.38282903       0.87533294 </v>
    <v>       0.37814099       0.13408799       0.87073840 </v>
    <v>       0.37650839       0.37734544       0.62463128 </v>
    <v>       0.12651893       0.62477883       0.12516365 </v>
    <v>       0.12451878       0.87872988       0.37706056 </v>
    <v>       0.37146275       0.62079159       0.37099277 </v>
    <v>       0.37994318       0.87816553       0.13045785 </v>
    <v>       0.12113078       0.63014962       0.61997097 </v>
    <v>       0.12093997       0.87454765       0.86993567 </v>
    <v>       0.36822890       0.62703263       0.88140254 </v>
    <v>       0.36636518       0.87609718       0.61985606 </v>
    <v>       0.62606178       0.12690514       0.12733980 </v>
    <v>       0.62494896       0.37241371       0.37152061 </v>
    <v>       0.87589887       0.11621358       0.37729203 </v>
    <v>       0.87993016       0.36892500       0.12186328 </v>
    <v>       0.62638197       0.12814932       0.62572399 </v>
    <v>       0.62178714       0.37730265       0.87787402 </v>
    <v>       0.88058078       0.12433613       0.87906988 </v>
    <v>       0.87363546       0.37568797       0.63035027 </v>
    <v>       0.62155957       0.63029481       0.12030407 </v>
    <v>       0.63028377       0.87524219       0.38156661 </v>
    <v>       0.87909247       0.62928977       0.36798795 </v>
    <v>       0.86727775       0.87029064       0.11727277 </v>
    <v>       0.62522131       0.63483832       0.61793088 </v>
    <v>       0.62581068       0.87589083       0.88292670 </v>
    <v>       0.87528003       0.62858171       0.87573581 </v>
    <v>       0.87106414       0.87904926       0.62667592 </v>
    <v>       0.99869902       0.00063824       0.99834613 </v>
    <v>       0.00208431       0.25039483       0.25133948 </v>
    <v>       0.25185530       0.99862419       0.24372802 </v>
    <v>       0.24773294       0.24704887       0.00717934 </v>
    <v>       0.00154661       0.99567559       0.49810616 </v>
    <v>       0.99970493       0.25944660       0.75226573 </v>
    <v>       0.24511005       0.99886695       0.75510574 </v>
    <v>       0.24893757       0.24355597       0.50207637 </v>
    <v>       0.99725207       0.50404040       0.00801111 </v>
    <v>       0.00103996       0.75230902       0.24785942 </v>
    <v>       0.24606377       0.49622399       0.25553576 </v>
    <v>       0.25633461       0.75099203       0.99564693 </v>
    <v>       0.99952497       0.49873878       0.49688733 </v>
    <v>       0.01181906       0.75474140       0.74698533 </v>
    <v>       0.25038068       0.49804002       0.74628496 </v>
    <v>       0.25169176       0.74367452       0.49856349 </v>
    <v>       0.50908644       0.01636271       0.00440388 </v>
    <v>       0.50140171       0.24314655       0.25152650 </v>
    <v>       0.74903764       0.00551799       0.25613104 </v>
    <v>       0.74965045       0.24689873       0.98833546 </v>
    <v>       0.50312137       0.99751461       0.50203775 </v>
    <v>       0.49368577       0.24056658       0.74797128 </v>
    <v>       0.74686793       0.00460656       0.75334880 </v>
    <v>       0.74647019       0.24106910       0.50977137 </v>
    <v>       0.49736202       0.48936001       0.99650343 </v>
    <v>       0.50189065       0.75331245       0.24694432 </v>
    <v>       0.74616412       0.48890950       0.25119624 </v>
    <v>       0.75215482       0.74986036       0.99636554 </v>
    <v>       0.51321700       0.49653903       0.50012779 </v>
    <v>       0.49918865       0.75970712       0.75134366 </v>
    <v>       0.75033297       0.50313309       0.75188471 </v>
    <v>       0.74661706       0.74752915       0.50431100 </v>
   </varray>
  </structure>
  <varray name="forces" >
   <v>       0.30547059      -0.10913191       0.82880269 </v>
   <v>      -1.17487026      -1.74360781       1.01602237 </v>
   <v>      -1.90034264      -1.65786534       0.33966602 </v>
   <v>      -2.55945475      -2.93196272       2.71373533 </v>
   <v>      -1.32158880       0.27114407       2.50543514 </v>
   <v>       0.58407583      -0.96714805       0.47085308 </v>
   <v>      -1.77424175      -2.51133360       2.00095202 </v>
   <v>       0.27008916      -0.78869661      -0.22416693 </v>
   <v>       0.20767318       0.58287657       0.27028773 </v>
   <v>       0.74026039      -0.92147826      -1.12156523 </v>
   <v>       1.48864663       0.40850876       0.76316238 </v>
   <v>      -0.36914032       0.60074786      -1.93178466 </v>
   <v>       0.88834166      -1.52202116       0.29535772 </v>
   <v>       1.51539511       0.88605022       1.90533775 </v>
   <v>       1.97387021      -1.06327890      -2.48008943 </v>
   <v>       1.33886176       0.25686911       1.22855504 </v>
   <v>       1.30570318       0.88691256       0.21341657 </v>
   <v>       0.53404236      -1.20034959       1.36444790 </v>
   <v>       0.25537036       2.10962894       0.18116343 </v>
   <v>      -1.28028458       0.15974430       0.45378299 </v>
   <v>      -1.38381490      -1.55636354       1.20255264 </v>
   <v>       0.73853160      -1.27749310      -1.95839652 </v>
   <v>      -0.83986483       0.53954707      -1.70541572 </v>
   <v>      -0.39444245       0.02249484      -1.21903649 </v>
   <v>       0.51183357      -1.74338615       0.21593678 </v>
   <v>      -0.99127094       0.13710964      -0.95336656 </v>
   <v>      -1.29215600      -1.45577119       1.30650417 </v>
   <v>       1.65222725       1.86765967       1.69715992 </v>
   <v>      -0.75418065      -2.07123569       2.44547419 </v>
   <v>      -0.52744495       1.34185513      -1.34462397 </v>
   <v>       0.64444300      -0.30860737      -0.53581832 </v>
   <v>       0.71492216      -0.47671183       0.18715475 </v>
   <v>      -0.35561902      -1.18000400       0.52980181 </v>
   <v>      -0.46521164      -0.57007786       0.04390935 </v>
   <v>      -0.07450514       0.35117299       1.73581964 </v>
   <v>       0.62793547       1.88831677      -1.66195617 </v>
   <v>      -0.56753107       0.11330506       0.66463576 </v>
   <v>       0.73341595      -1.48555887      -0.20045368 </v>
   <v>       0.85958345       0.74470802      -1.53224728 </v>
   <v>       1.42837134       1.62095024      -1.04716609 </v>
   <v>       0.32093929       0.03732622      -1.33998200 </v>
   <v>      -0.03963029       0.25190432      -0.43451160 </v>
   <v>       1.65723419       1.20138503      -2.15691110 </v>
   <v>      -1.39003038       0.55202775       1.86099638 </v>
   <v>      -0.40924334       0.77700981       0.06353884 </v>
   <v>      -3.34135277      -0.93391863      -0.31547932 </v>
   <v>      -0.33610131       1.13748640       0.65997592 </v>
   <v>      -0.34980253       0.81686474      -0.86080506 </v>
   <v>      -1.86536444      -2.91874870      -0.89409950 </v>
   <v>       0.09023165       2.39781423      -0.99160332 </v>
   <v>       0.21609722      -1.92893670      -1.32612185 </v>
   <v>       0.46892355       0.94141881       2.21372904 </v>
   <v>      -0.64467621       0.11853513      -0.37023605 </v>
   <v>       1.38901146       3.28733557      -0.79649194 </v>
   <v>       1.07316553      -1.09472037       0.05912119 </v>
   <v>       1.77517427       1.93743220      -2.20239397 </v>
   <v>       0.68920258       3.79240769       0.13811878 </v>
   <v>       0.11306182      -0.91493158       0.94498651 </v>
   <v>       1.20370135       2.38991441      -1.45640493 </v>
   <v>      -0.92056980      -0.69695130       0.44028777 </v>
   <v>      -2.56230401       0.79603411      -0.42715832 </v>
   <v>      -0.64356602      -1.05411193       0.08549444 </v>
   <v>      -0.27975845       0.52067544       0.03393156 </v>
   <v>       2.49255712       1.33922911      -1.59182161 </v>
  </varray>
  <varray name="stress" >
   <v>      17.88909104      11.95827228     -17.23604854 </v>
   <v>      11.95827225      15.50745031      -1.74046863 </v>
   <v>     -17.23604857      -1.74046861      17.13425155 </v>
  </varray>
  <energy>
   <i name="e_fr_energy">   -477.67007418 </i>
   <i name="e_wo_entrp">   -477.68185997 </i>
   <i name="e_0_energy">   -477.67400278 </i>
  </energy>
  <time name="totalsc">  332.61  334.47</time>
  <eigenvalues>
   <array>
    <dimension dim="1">band</dimension>
    <dimension dim="2">kpoint</dimension>
    <dimension dim="3">spin</dimension>
    <field>eigene</field>
    <field>occ</field>
    <set>
     <set comment="spin 1">
      <set comment="kpoint 1">
       <r>   -7.3927    1.0000 </r>
       <r>   -5.9906    1.0000 </r>
       <r>   -5.8855    1.0000 </r>
       <r>   -5.8265    1.0000 </r>
       <r>   -5.7436    1.0000 </r>
       <r>   -5.6983    1.0000 </r>
       <r>   -5.6836    1.0000 </r>
       <r>   -4.6805    1.0000 </r>
       <r>   -4.6481    1.0000 </r>
       <r>   -4.5976    1.0000 </r>
       <r>   -4.4684    1.0000 </r>
       <r>   -4.4244    1.0000 </r>
       <r>   -4.3536    1.0000 </r>
       <r>   -4.3385    1.0000 </r>
       <r>   -4.3049    1.0000 </r>
       <r>   -4.2645    1.0000 </r>
       <r>   -4.2019    1.0000 </r>
       <r>   -4.1765    1.0000 </r>
       <r>   -4.1157    1.0000 </r>
       <r>   -3.9020    1.0000 </r>
       <r>   -3.8020    1.0000 </r>
       <r>   -3.6787    1.0000 </r>
       <r>   -3.6358    1.0000 </r>
       <r>   -2.6140    1.0000 </r>
       <r>   -2.4255    1.0000 </r>
       <r>   -2.3293    1.0000 </r>
       <r>   -2.2539    1.0000 </r>
       <r>   -2.1935    1.0000 </r>
       <r>   -2.1627    1.0000 </r>
       <r>   -2.0721    1.0000 </r>
       <r>   -1.9804    1.0000 </r>
       <r>   -1.8723    1.0000 </r>
       <r>   -0.6224    1.0000 </r>
       <r>   -0.5772    1.0000 </r>
       <r>   -0.4550    1.0000 </r>
       <r>   -0.4074    1.0000 </r>
       <r>    0.1779    1.0000 </r>
       <r>    0.1930    1.0000 </r>
       <r>    0.2412    1.0000 </r>
       <r>    0.8903    1.0000 </r>
       <r>    0.9131    1.0000 </r>
       <r>    0.9505    1.0000 </r>
       <r>    0.9880    1.0000 </r>
       <r>    1.0027    1.0000 </r>
       <r>    1.0432    1.0000 </r>
       <r>    1.8571    1.0000 </r>
       <r>    1.8930    1.0000 </r>
       <r>    1.9247    1.0000 </r>
       <r>    1.9461    1.0000 </r>
       <r>    1.9911    1.0000 </r>
       <r>    2.0011    1.0000 </r>
       <r>    2.0716    1.0000 </r>
       <r>    2.0784    1.0000 </r>
       <r>    2.1519    1.0000 </r>
       <r>    2.2197    1.0000 </r>
       <r>    2.2376    1.0000 </r>
       <r>    2.2890    1.0000 </r>
       <r>    2.8709    1.0000 </r>
       <r>    2.8915    1.0000 </r>
       <r>    2.9690    1.0000 </r>
       <r>    3.0179    1.0000 </r>
       <r>    3.0584    1.0000 </r>
       <r>    3.0972    1.0000 </r>
       <r>    3.2447    1.0000 </r>
       <r>    3.2731    1.0000 </r>
       <r>    3.3312    1.0000 </r>
       <r>    3.3495    1.0000 </r>
       <r>    3.3856    1.0000 </r>
       <r>    3.4155    1.0000 </r>
       <r>    3.5409    1.0000 </r>
       <r>    3.5591    1.0000 </r>
       <r>    3.5650    1.0000 </r>
       <r>    3.6315    1.0000 </r>
       <r>    3.6746    1.0000 </r>
       <r>    3.6881    1.0000 </r>
       <r>    3.7235    1.0000 </r>
       <r>    3.7502    1.0000 </r>
       <r>    3.7841    1.0000 </r>
       <r>    3.8354    1.0000 </r>
       <r>    3.8520    1.0000 </r>
       <r>    3.8697    1.0000 </r>
       <r>    4.4906    1.0000 </r>
       <r>    4.5368    1.0000 </r>
       <r>    4.6218    1.0000 </r>
       <r>    4.6890    1.0000 </r>
       <r>    4.7192    1.0000 </r>
       <r>    4.7221    1.0000 </r>
       <r>    4.7783    1.0000 </r>
       <r>    4.8374    1.0000 </r>
       <r>    4.8433    1.0000 </r>
       <r>    4.8826    1.0000 </r>
       <r>    4.8915    1.0000 </r>
       <r>    4.9193    1.0000 </r>
       <r>    5.7727    1.0000 </r>
       <r>    5.9010    1.0000 </r>
       <r>    5.9235    1.0000 </r>
       <r>    5.9820    1.0000 </r>
       <r>    6.0001    1.0000 </r>
       <r>    6.0398    1.0000 </r>
       <r>    6.0546    1.0000 </r>
       <r>    6.0945    1.0000 </r>
       <r>    6.1628    1.0000 </r>
       <r>    6.2101    1.0000 </r>
       <r>    6.2566    1.0000 </r>
       <r>    6.2959    1.0000 </r>
       <r>    6.4322    1.0000 </r>
       <r>    6.5935    1.0000 </r>
       <r>    6.6066    1.0000 </r>
       <r>    6.7138    1.0000 </r>
       <r>    6.7197    1.0000 </r>
       <r>    6.7824    1.0000 </r>
       <r>    6.8117    1.0000 </r>
       <r>    6.8477    1.0000 </r>
       <r>    6.8818    1.0000 </r>
       <r>    6.8897    1.0000 </r>
       <r>    6.9264    1.0000 </r>
       <r>    6.9605    1.0000 </r>
       <r>    7.0121    1.0000 </r>
       <r>    7.0474    1.0000 </r>
       <r>    7.0846    1.0000 </r>
       <r>    7.1169    1.0000 </r>
       <r>    7.1310    1.0000 </r>
       <r>    7.1691    1.0000 </r>
       <r>    7.1977    1.0000 </r>
       <r>    7.3687    1.0000 </r>
       <r>    7.9818    1.0322 </r>
       <r>    8.0795    1.0111 </r>
       <r>    8.1982    0.7451 </r>
       <r>    9.2053   -0.0000 </r>
       <r>    9.3277   -0.0000 </r>
       <r>    9.4533   -0.0000 </r>
       <r>   11.7501   -0.0000 </r>
       <r>   11.8606   -0.0000 </r>
       <r>   11.9205   -0.0000 </r>
       <r>   11.9305   -0.0000 </r>
       <r>   12.0086   -0.0000 </r>
       <r>   12.1084   -0.0000 </r>
       <r>   12.1731   -0.0000 </r>
       <r>   12.1940   -0.0000 </r>
       <r>   12.3044   -0.0000 </r>
       <r>   12.8537   -0.0000 </r>
       <r>   12.9484   -0.0000 </r>
       <r>   12.9855   -0.0000 </r>
       <r>   13.0147   -0.0000 </r>
       <r>   13.0909   -0.0000 </r>
       <r>   13.1646   -0.0000 </r>
       <r>   13.1806   -0.0000 </r>
       <r>   13.1952   -0.0000 </r>
       <r>   13.2512   -0.0000 </r>
       <r>   13.2668   -0.0000 </r>
       <r>   13.2774   -0.0000 </r>
       <r>   13.3398   -0.0000 </r>
       <r>   13.4316   -0.0000 </r>
       <r>   13.4386   -0.0000 </r>
       <r>   13.4571   -0.0000 </r>
       <r>   13.4920   -0.0000 </r>
       <r>   13.5518   -0.0000 </r>
       <r>   13.5803   -0.0000 </r>
       <r>   13.6324   -0.0000 </r>
       <r>   13.6454   -0.0000 </r>
       <r>   13.6775   -0.0000 </r>
       <r>   13.7356    0.0000 </r>
       <r>   14.0208    0.0000 </r>
       <r>   14.0294    0.0000 </r>
       <r>   14.1621    0.0000 </r>
       <r>   14.2124    0.0000 </r>
       <r>   14.2908    0.0000 </r>
       <r>   14.3678    0.0000 </r>
      </set>
      <set comment="kpoint 2">
       <r>   -7.2177    1.0000 </r>
       <r>   -6.6845    1.0000 </r>
       <r>   -5.7310    1.0000 </r>
       <r>   -5.6743    1.0000 </r>
       <r>   -5.5985    1.0000 </r>
       <r>   -5.5730    1.0000 </r>
       <r>   -5.2502    1.0000 </r>
       <r>   -5.1920    1.0000 </r>
       <r>   -5.1014    1.0000 </r>
       <r>   -5.0766    1.0000 </r>
       <r>   -4.6487    1.0000 </r>
       <r>   -4.3824    1.0000 </r>
       <r>   -4.3224    1.0000 </r>
       <r>   -4.2038    1.0000 </r>
       <r>   -4.1645    1.0000 </r>
       <r>   -4.0846    1.0000 </r>
       <r>   -4.0344    1.0000 </r>
       <r>   -3.9353    1.0000 </r>
       <r>   -3.8748    1.0000 </r>
       <r>   -3.4838    1.0000 </r>
       <r>   -3.4207    1.0000 </r>
       <r>   -3.3457    1.0000 </r>
       <r>   -3.2978    1.0000 </r>
       <r>   -3.2236    1.0000 </r>
       <r>   -2.6586    1.0000 </r>
       <r>   -2.5819    1.0000 </r>
       <r>   -2.5533    1.0000 </r>
       <r>   -2.4354    1.0000 </r>
       <r>   -2.2975    1.0000 </r>
       <r>   -2.2087    1.0000 </r>
       <r>   -2.1464    1.0000 </r>
       <r>   -2.0665    1.0000 </r>
       <r>   -0.1836    1.0000 </r>
       <r>   -0.1188    1.0000 </r>
       <r>   -0.0101    1.0000 </r>
       <r>    0.0397    1.0000 </r>
       <r>    0.3015    1.0000 </r>
       <r>    0.3667    1.0000 </r>
       <r>    0.6771    1.0000 </r>
       <r>    0.7055    1.0000 </r>
       <r>    0.8365    1.0000 </r>
       <r>    0.9196    1.0000 </r>
       <r>    0.9937    1.0000 </r>
       <r>    1.0123    1.0000 </r>
       <r>    1.0799    1.0000 </r>
       <r>    1.1108    1.0000 </r>
       <r>    1.1796    1.0000 </r>
       <r>    1.2423    1.0000 </r>
       <r>    1.2833    1.0000 </r>
       <r>    1.3517    1.0000 </r>
       <r>    1.3909    1.0000 </r>
       <r>    1.4626    1.0000 </r>
       <r>    1.5263    1.0000 </r>
       <r>    2.6112    1.0000 </r>
       <r>    2.6424    1.0000 </r>
       <r>    2.6992    1.0000 </r>
       <r>    2.7117    1.0000 </r>
       <r>    2.7837    1.0000 </r>
       <r>    2.8105    1.0000 </r>
       <r>    2.8603    1.0000 </r>
       <r>    2.9527    1.0000 </r>
       <r>    3.0068    1.0000 </r>
       <r>    3.0391    1.0000 </r>
       <r>    3.0765    1.0000 </r>
       <r>    3.0903    1.0000 </r>
       <r>    3.1527    1.0000 </r>
       <r>    3.4606    1.0000 </r>
       <r>    3.5362    1.0000 </r>
       <r>    3.6384    1.0000 </r>
       <r>    3.6727    1.0000 </r>
       <r>    3.8863    1.0000 </r>
       <r>    3.9241    1.0000 </r>
       <r>    4.0547    1.0000 </r>
       <r>    4.1161    1.0000 </r>
       <r>    4.2621    1.0000 </r>
       <r>    4.2911    1.0000 </r>
       <r>    4.3105    1.0000 </r>
       <r>    4.3436    1.0000 </r>
       <r>    4.3638    1.0000 </r>
       <r>    4.4209    1.0000 </r>
       <r>    4.4677    1.0000 </r>
       <r>    4.5065    1.0000 </r>
       <r>    4.6041    1.0000 </r>
       <r>    4.6463    1.0000 </r>
       <r>    4.6624    1.0000 </r>
       <r>    4.6924    1.0000 </r>
       <r>    4.8084    1.0000 </r>
       <r>    4.8417    1.0000 </r>
       <r>    4.8746    1.0000 </r>
       <r>    4.9295    1.0000 </r>
       <r>    4.9914    1.0000 </r>
       <r>    5.0653    1.0000 </r>
       <r>    5.3382    1.0000 </r>
       <r>    5.3737    1.0000 </r>
       <r>    5.5377    1.0000 </r>
       <r>    5.5913    1.0000 </r>
       <r>    5.6076    1.0000 </r>
       <r>    5.6665    1.0000 </r>
       <r>    5.7491    1.0000 </r>
       <r>    5.8323    1.0000 </r>
       <r>    5.8819    1.0000 </r>
       <r>    5.9703    1.0000 </r>
       <r>    6.1364    1.0000 </r>
       <r>    6.1830    1.0000 </r>
       <r>    6.2875    1.0000 </r>
       <r>    6.3043    1.0000 </r>
       <r>    6.3388    1.0000 </r>
       <r>    6.4004    1.0000 </r>
       <r>    6.4222    1.0000 </r>
       <r>    6.5687    1.0000 </r>
       <r>    6.6024    1.0000 </r>
       <r>    6.6544    1.0000 </r>
       <r>    6.7053    1.0000 </r>
       <r>    6.7587    1.0000 </r>
       <r>    6.8043    1.0000 </r>
       <r>    6.8671    1.0000 </r>
       <r>    6.9144    1.0000 </r>
       <r>    6.9551    1.0000 </r>
       <r>    7.0005    1.0000 </r>
       <r>    7.0396    1.0000 </r>
       <r>    7.0774    1.0000 </r>
       <r>    7.1116    1.0000 </r>
       <r>    7.1516    1.0000 </r>
       <r>    7.1584    1.0000 </r>
       <r>    7.2319    1.0000 </r>
       <r>    7.5360    1.0000 </r>
       <r>    7.7479    1.0009 </r>
       <r>    7.8125    1.0035 </r>
       <r>    9.6381   -0.0000 </r>
       <r>   10.0523   -0.0000 </r>
       <r>   10.2573   -0.0000 </r>
       <r>   10.5866   -0.0000 </r>
       <r>   11.7890   -0.0000 </r>
       <r>   11.9526   -0.0000 </r>
       <r>   12.3512   -0.0000 </r>
       <r>   12.4165   -0.0000 </r>
       <r>   12.5183   -0.0000 </r>
       <r>   12.5874   -0.0000 </r>
       <r>   12.6235   -0.0000 </r>
       <r>   12.7712   -0.0000 </r>
       <r>   12.8583   -0.0000 </r>
       <r>   12.8812   -0.0000 </r>
       <r>   12.9138   -0.0000 </r>
       <r>   12.9413   -0.0000 </r>
       <r>   12.9798   -0.0000 </r>
       <r>   13.0337   -0.0000 </r>
       <r>   13.0754   -0.0000 </r>
       <r>   13.1024   -0.0000 </r>
       <r>   13.1694   -0.0000 </r>
       <r>   13.2185   -0.0000 </r>
       <r>   13.4395   -0.0000 </r>
       <r>   13.4781   -0.0000 </r>
       <r>   13.5599   -0.0000 </r>
       <r>   13.5859   -0.0000 </r>
       <r>   13.6154   -0.0000 </r>
       <r>   13.6310   -0.0000 </r>
       <r>   13.6723   -0.0000 </r>
       <r>   13.7084   -0.0000 </r>
       <r>   13.7357    0.0000 </r>
       <r>   13.8778    0.0000 </r>
       <r>   13.9524    0.0000 </r>
       <r>   14.0078    0.0000 </r>
       <r>   14.0868    0.0000 </r>
       <r>   14.4101    0.0000 </r>
       <r>   14.6460    0.0000 </r>
       <r>   14.7010    0.0000 </r>
       <r>   14.7204    0.0000 </r>
       <r>   14.7722    0.0000 </r>
      </set>
      <set comment="kpoint 3">
       <r>   -7.2330    1.0000 </r>
       <r>   -6.6335    1.0000 </r>
       <r>   -5.7984    1.0000 </r>
       <r>   -5.6857    1.0000 </r>
       <r>   -5.6497    1.0000 </r>
       <r>   -5.5655    1.0000 </r>
       <r>   -5.2427    1.0000 </r>
       <r>   -5.1333    1.0000 </r>
       <r>   -5.0858    1.0000 </r>
       <r>   -5.0023    1.0000 </r>
       <r>   -4.6428    1.0000 </r>
       <r>   -4.5028    1.0000 </r>
       <r>   -4.3587    1.0000 </r>
       <r>   -4.2871    1.0000 </r>
       <r>   -4.1539    1.0000 </r>
       <r>   -4.0786    1.0000 </r>
       <r>   -3.9533    1.0000 </r>
       <r>   -3.8567    1.0000 </r>
       <r>   -3.7624    1.0000 </r>
       <r>   -3.5108    1.0000 </r>
       <r>   -3.4786    1.0000 </r>
       <r>   -3.3999    1.0000 </r>
       <r>   -3.3336    1.0000 </r>
       <r>   -3.1507    1.0000 </r>
       <r>   -2.6656    1.0000 </r>
       <r>   -2.5693    1.0000 </r>
       <r>   -2.5086    1.0000 </r>
       <r>   -2.4577    1.0000 </r>
       <r>   -2.4035    1.0000 </r>
       <r>   -2.2884    1.0000 </r>
       <r>   -2.1207    1.0000 </r>
       <r>   -1.9514    1.0000 </r>
       <r>   -0.1976    1.0000 </r>
       <r>   -0.1191    1.0000 </r>
       <r>   -0.0153    1.0000 </r>
       <r>    0.0358    1.0000 </r>
       <r>    0.3060    1.0000 </r>
       <r>    0.3387    1.0000 </r>
       <r>    0.6933    1.0000 </r>
       <r>    0.7281    1.0000 </r>
       <r>    0.9116    1.0000 </r>
       <r>    0.9712    1.0000 </r>
       <r>    0.9983    1.0000 </r>
       <r>    1.0141    1.0000 </r>
       <r>    1.0545    1.0000 </r>
       <r>    1.0960    1.0000 </r>
       <r>    1.1892    1.0000 </r>
       <r>    1.2220    1.0000 </r>
       <r>    1.2354    1.0000 </r>
       <r>    1.3380    1.0000 </r>
       <r>    1.4053    1.0000 </r>
       <r>    1.4519    1.0000 </r>
       <r>    1.5099    1.0000 </r>
       <r>    2.5473    1.0000 </r>
       <r>    2.6025    1.0000 </r>
       <r>    2.6572    1.0000 </r>
       <r>    2.6861    1.0000 </r>
       <r>    2.8172    1.0000 </r>
       <r>    2.8931    1.0000 </r>
       <r>    2.9086    1.0000 </r>
       <r>    2.9477    1.0000 </r>
       <r>    3.0146    1.0000 </r>
       <r>    3.0439    1.0000 </r>
       <r>    3.0767    1.0000 </r>
       <r>    3.0851    1.0000 </r>
       <r>    3.1206    1.0000 </r>
       <r>    3.5056    1.0000 </r>
       <r>    3.5118    1.0000 </r>
       <r>    3.6087    1.0000 </r>
       <r>    3.6165    1.0000 </r>
       <r>    3.9356    1.0000 </r>
       <r>    4.0231    1.0000 </r>
       <r>    4.0429    1.0000 </r>
       <r>    4.0738    1.0000 </r>
       <r>    4.2810    1.0000 </r>
       <r>    4.3241    1.0000 </r>
       <r>    4.3531    1.0000 </r>
       <r>    4.3777    1.0000 </r>
       <r>    4.4067    1.0000 </r>
       <r>    4.4174    1.0000 </r>
       <r>    4.4452    1.0000 </r>
       <r>    4.4981    1.0000 </r>
       <r>    4.5407    1.0000 </r>
       <r>    4.6200    1.0000 </r>
       <r>    4.6783    1.0000 </r>
       <r>    4.7055    1.0000 </r>
       <r>    4.7378    1.0000 </r>
       <r>    4.8301    1.0000 </r>
       <r>    4.9035    1.0000 </r>
       <r>    4.9131    1.0000 </r>
       <r>    4.9497    1.0000 </r>
       <r>    4.9994    1.0000 </r>
       <r>    5.3590    1.0000 </r>
       <r>    5.4467    1.0000 </r>
       <r>    5.5024    1.0000 </r>
       <r>    5.5624    1.0000 </r>
       <r>    5.6435    1.0000 </r>
       <r>    5.7113    1.0000 </r>
       <r>    5.7859    1.0000 </r>
       <r>    5.8827    1.0000 </r>
       <r>    5.9205    1.0000 </r>
       <r>    5.9690    1.0000 </r>
       <r>    6.1339    1.0000 </r>
       <r>    6.1585    1.0000 </r>
       <r>    6.2439    1.0000 </r>
       <r>    6.3149    1.0000 </r>
       <r>    6.3739    1.0000 </r>
       <r>    6.4311    1.0000 </r>
       <r>    6.4597    1.0000 </r>
       <r>    6.5213    1.0000 </r>
       <r>    6.5421    1.0000 </r>
       <r>    6.5945    1.0000 </r>
       <r>    6.6834    1.0000 </r>
       <r>    6.7265    1.0000 </r>
       <r>    6.8434    1.0000 </r>
       <r>    6.8552    1.0000 </r>
       <r>    6.9038    1.0000 </r>
       <r>    6.9696    1.0000 </r>
       <r>    6.9929    1.0000 </r>
       <r>    7.0171    1.0000 </r>
       <r>    7.0573    1.0000 </r>
       <r>    7.0838    1.0000 </r>
       <r>    7.1147    1.0000 </r>
       <r>    7.1601    1.0000 </r>
       <r>    7.3334    1.0000 </r>
       <r>    7.5621    1.0000 </r>
       <r>    7.6876    1.0002 </r>
       <r>    7.8760    1.0104 </r>
       <r>    9.6018   -0.0000 </r>
       <r>   10.1308   -0.0000 </r>
       <r>   10.2005   -0.0000 </r>
       <r>   10.5854   -0.0000 </r>
       <r>   11.8888   -0.0000 </r>
       <r>   11.9112   -0.0000 </r>
       <r>   12.3347   -0.0000 </r>
       <r>   12.4500   -0.0000 </r>
       <r>   12.5221   -0.0000 </r>
       <r>   12.5454   -0.0000 </r>
       <r>   12.6156   -0.0000 </r>
       <r>   12.7279   -0.0000 </r>
       <r>   12.8256   -0.0000 </r>
       <r>   12.8616   -0.0000 </r>
       <r>   12.8779   -0.0000 </r>
       <r>   12.9463   -0.0000 </r>
       <r>   12.9929   -0.0000 </r>
       <r>   13.0348   -0.0000 </r>
       <r>   13.0778   -0.0000 </r>
       <r>   13.1489   -0.0000 </r>
       <r>   13.2260   -0.0000 </r>
       <r>   13.2883   -0.0000 </r>
       <r>   13.4189   -0.0000 </r>
       <r>   13.4611   -0.0000 </r>
       <r>   13.5092   -0.0000 </r>
       <r>   13.5355   -0.0000 </r>
       <r>   13.5875   -0.0000 </r>
       <r>   13.6342   -0.0000 </r>
       <r>   13.6992   -0.0000 </r>
       <r>   13.7306    0.0000 </r>
       <r>   13.7707    0.0000 </r>
       <r>   13.9111    0.0000 </r>
       <r>   13.9443    0.0000 </r>
       <r>   14.0126    0.0000 </r>
       <r>   14.0708    0.0000 </r>
       <r>   14.4035    0.0000 </r>
       <r>   14.6331    0.0000 </r>
       <r>   14.6862    0.0000 </r>
       <r>   14.7477    0.0000 </r>
       <r>   14.7980    0.0000 </r>
      </set>
      <set comment="kpoint 4">
       <r>   -7.2164    1.0000 </r>
       <r>   -6.6806    1.0000 </r>
       <r>   -5.8348    1.0000 </r>
       <r>   -5.6191    1.0000 </r>
       <r>   -5.5738    1.0000 </r>
       <r>   -5.5511    1.0000 </r>
       <r>   -5.3176    1.0000 </r>
       <r>   -5.1186    1.0000 </r>
       <r>   -5.0876    1.0000 </r>
       <r>   -5.0475    1.0000 </r>
       <r>   -4.6747    1.0000 </r>
       <r>   -4.3989    1.0000 </r>
       <r>   -4.3435    1.0000 </r>
       <r>   -4.2151    1.0000 </r>
       <r>   -4.1465    1.0000 </r>
       <r>   -4.0990    1.0000 </r>
       <r>   -4.0459    1.0000 </r>
       <r>   -3.8825    1.0000 </r>
       <r>   -3.8547    1.0000 </r>
       <r>   -3.5233    1.0000 </r>
       <r>   -3.4714    1.0000 </r>
       <r>   -3.3771    1.0000 </r>
       <r>   -3.2630    1.0000 </r>
       <r>   -3.2066    1.0000 </r>
       <r>   -2.6566    1.0000 </r>
       <r>   -2.5683    1.0000 </r>
       <r>   -2.5242    1.0000 </r>
       <r>   -2.4055    1.0000 </r>
       <r>   -2.2990    1.0000 </r>
       <r>   -2.2842    1.0000 </r>
       <r>   -2.1497    1.0000 </r>
       <r>   -2.0282    1.0000 </r>
       <r>   -0.1765    1.0000 </r>
       <r>   -0.1279    1.0000 </r>
       <r>   -0.0092    1.0000 </r>
       <r>    0.0400    1.0000 </r>
       <r>    0.3333    1.0000 </r>
       <r>    0.3685    1.0000 </r>
       <r>    0.6508    1.0000 </r>
       <r>    0.7089    1.0000 </r>
       <r>    0.8052    1.0000 </r>
       <r>    0.9219    1.0000 </r>
       <r>    0.9805    1.0000 </r>
       <r>    1.0096    1.0000 </r>
       <r>    1.0734    1.0000 </r>
       <r>    1.1244    1.0000 </r>
       <r>    1.1734    1.0000 </r>
       <r>    1.2345    1.0000 </r>
       <r>    1.2643    1.0000 </r>
       <r>    1.3291    1.0000 </r>
       <r>    1.4112    1.0000 </r>
       <r>    1.4792    1.0000 </r>
       <r>    1.5535    1.0000 </r>
       <r>    2.5946    1.0000 </r>
       <r>    2.6360    1.0000 </r>
       <r>    2.6604    1.0000 </r>
       <r>    2.7378    1.0000 </r>
       <r>    2.7895    1.0000 </r>
       <r>    2.8625    1.0000 </r>
       <r>    2.8997    1.0000 </r>
       <r>    2.9582    1.0000 </r>
       <r>    2.9953    1.0000 </r>
       <r>    3.0282    1.0000 </r>
       <r>    3.0766    1.0000 </r>
       <r>    3.1097    1.0000 </r>
       <r>    3.1596    1.0000 </r>
       <r>    3.4552    1.0000 </r>
       <r>    3.5131    1.0000 </r>
       <r>    3.6453    1.0000 </r>
       <r>    3.6759    1.0000 </r>
       <r>    3.9079    1.0000 </r>
       <r>    3.9631    1.0000 </r>
       <r>    4.0364    1.0000 </r>
       <r>    4.0965    1.0000 </r>
       <r>    4.1935    1.0000 </r>
       <r>    4.3001    1.0000 </r>
       <r>    4.3177    1.0000 </r>
       <r>    4.3479    1.0000 </r>
       <r>    4.3710    1.0000 </r>
       <r>    4.4172    1.0000 </r>
       <r>    4.4594    1.0000 </r>
       <r>    4.4901    1.0000 </r>
       <r>    4.5462    1.0000 </r>
       <r>    4.6424    1.0000 </r>
       <r>    4.6842    1.0000 </r>
       <r>    4.7230    1.0000 </r>
       <r>    4.7648    1.0000 </r>
       <r>    4.8166    1.0000 </r>
       <r>    4.9219    1.0000 </r>
       <r>    4.9499    1.0000 </r>
       <r>    5.0156    1.0000 </r>
       <r>    5.0411    1.0000 </r>
       <r>    5.3218    1.0000 </r>
       <r>    5.4086    1.0000 </r>
       <r>    5.4747    1.0000 </r>
       <r>    5.5769    1.0000 </r>
       <r>    5.6296    1.0000 </r>
       <r>    5.6702    1.0000 </r>
       <r>    5.7365    1.0000 </r>
       <r>    5.8684    1.0000 </r>
       <r>    5.9194    1.0000 </r>
       <r>    5.9557    1.0000 </r>
       <r>    6.1049    1.0000 </r>
       <r>    6.1840    1.0000 </r>
       <r>    6.2223    1.0000 </r>
       <r>    6.3539    1.0000 </r>
       <r>    6.3887    1.0000 </r>
       <r>    6.4331    1.0000 </r>
       <r>    6.4695    1.0000 </r>
       <r>    6.4933    1.0000 </r>
       <r>    6.6004    1.0000 </r>
       <r>    6.6565    1.0000 </r>
       <r>    6.7250    1.0000 </r>
       <r>    6.7892    1.0000 </r>
       <r>    6.8498    1.0000 </r>
       <r>    6.8699    1.0000 </r>
       <r>    6.9222    1.0000 </r>
       <r>    6.9326    1.0000 </r>
       <r>    6.9903    1.0000 </r>
       <r>    7.0291    1.0000 </r>
       <r>    7.0694    1.0000 </r>
       <r>    7.0871    1.0000 </r>
       <r>    7.0977    1.0000 </r>
       <r>    7.1448    1.0000 </r>
       <r>    7.2709    1.0000 </r>
       <r>    7.5436    1.0000 </r>
       <r>    7.7289    1.0006 </r>
       <r>    7.8143    1.0036 </r>
       <r>    9.6226   -0.0000 </r>
       <r>   10.1565   -0.0000 </r>
       <r>   10.1769   -0.0000 </r>
       <r>   10.5751   -0.0000 </r>
       <r>   11.8681   -0.0000 </r>
       <r>   11.8894   -0.0000 </r>
       <r>   12.3439   -0.0000 </r>
       <r>   12.4216   -0.0000 </r>
       <r>   12.4912   -0.0000 </r>
       <r>   12.5562   -0.0000 </r>
       <r>   12.6909   -0.0000 </r>
       <r>   12.7391   -0.0000 </r>
       <r>   12.8170   -0.0000 </r>
       <r>   12.8717   -0.0000 </r>
       <r>   12.8941   -0.0000 </r>
       <r>   12.9403   -0.0000 </r>
       <r>   12.9771   -0.0000 </r>
       <r>   13.0466   -0.0000 </r>
       <r>   13.0859   -0.0000 </r>
       <r>   13.1427   -0.0000 </r>
       <r>   13.1921   -0.0000 </r>
       <r>   13.2998   -0.0000 </r>
       <r>   13.3871   -0.0000 </r>
       <r>   13.4804   -0.0000 </r>
       <r>   13.5371   -0.0000 </r>
       <r>   13.5808   -0.0000 </r>
       <r>   13.6102   -0.0000 </r>
       <r>   13.6143   -0.0000 </r>
       <r>   13.6854   -0.0000 </r>
       <r>   13.7353    0.0000 </r>
       <r>   13.7847    0.0000 </r>
       <r>   13.8729    0.0000 </r>
       <r>   13.9458    0.0000 </r>
       <r>   13.9948    0.0000 </r>
       <r>   14.0836    0.0000 </r>
       <r>   14.3991    0.0000 </r>
       <r>   14.5525    0.0000 </r>
       <r>   14.6104    0.0000 </r>
       <r>   14.7499    0.0000 </r>
       <r>   14.7654    0.0000 </r>
      </set>
      <set comment="kpoint 5">
       <r>   -7.0606    1.0000 </r>
       <r>   -6.5600    1.0000 </r>
       <r>   -6.4185    1.0000 </r>
       <r>   -5.9499    1.0000 </r>
       <r>   -5.5531    1.0000 </r>
       <r>   -5.4887    1.0000 </r>
       <r>   -5.1084    1.0000 </r>
       <r>   -5.0642    1.0000 </r>
       <r>   -5.0023    1.0000 </r>
       <r>   -4.8585    1.0000 </r>
       <r>   -4.6318    1.0000 </r>
       <r>   -4.6035    1.0000 </r>
       <r>   -4.4614    1.0000 </r>
       <r>   -4.3621    1.0000 </r>
       <r>   -4.0746    1.0000 </r>
       <r>   -3.9988    1.0000 </r>
       <r>   -3.6351    1.0000 </r>
       <r>   -3.6082    1.0000 </r>
       <r>   -3.4732    1.0000 </r>
       <r>   -3.4416    1.0000 </r>
       <r>   -3.3450    1.0000 </r>
       <r>   -3.3004    1.0000 </r>
       <r>   -3.1696    1.0000 </r>
       <r>   -3.1052    1.0000 </r>
       <r>   -2.8827    1.0000 </r>
       <r>   -2.8200    1.0000 </r>
       <r>   -2.7425    1.0000 </r>
       <r>   -2.6851    1.0000 </r>
       <r>   -2.6013    1.0000 </r>
       <r>   -2.4290    1.0000 </r>
       <r>   -2.2443    1.0000 </r>
       <r>   -2.1174    1.0000 </r>
       <r>   -0.2297    1.0000 </r>
       <r>   -0.1479    1.0000 </r>
       <r>    0.3102    1.0000 </r>
       <r>    0.3622    1.0000 </r>
       <r>    0.4713    1.0000 </r>
       <r>    0.5239    1.0000 </r>
       <r>    0.5627    1.0000 </r>
       <r>    0.6324    1.0000 </r>
       <r>    0.6901    1.0000 </r>
       <r>    0.7216    1.0000 </r>
       <r>    0.7889    1.0000 </r>
       <r>    0.8803    1.0000 </r>
       <r>    0.9145    1.0000 </r>
       <r>    0.9757    1.0000 </r>
       <r>    1.1154    1.0000 </r>
       <r>    1.1995    1.0000 </r>
       <r>    1.2709    1.0000 </r>
       <r>    1.3496    1.0000 </r>
       <r>    1.9143    1.0000 </r>
       <r>    2.0125    1.0000 </r>
       <r>    2.0246    1.0000 </r>
       <r>    2.0699    1.0000 </r>
       <r>    2.1643    1.0000 </r>
       <r>    2.1859    1.0000 </r>
       <r>    2.3913    1.0000 </r>
       <r>    2.5342    1.0000 </r>
       <r>    2.6196    1.0000 </r>
       <r>    2.6585    1.0000 </r>
       <r>    2.7192    1.0000 </r>
       <r>    3.1273    1.0000 </r>
       <r>    3.1959    1.0000 </r>
       <r>    3.2569    1.0000 </r>
       <r>    3.2933    1.0000 </r>
       <r>    3.3348    1.0000 </r>
       <r>    3.4200    1.0000 </r>
       <r>    3.5619    1.0000 </r>
       <r>    3.8461    1.0000 </r>
       <r>    3.8763    1.0000 </r>
       <r>    3.9696    1.0000 </r>
       <r>    4.0094    1.0000 </r>
       <r>    4.0615    1.0000 </r>
       <r>    4.0765    1.0000 </r>
       <r>    4.1614    1.0000 </r>
       <r>    4.3036    1.0000 </r>
       <r>    4.3660    1.0000 </r>
       <r>    4.4123    1.0000 </r>
       <r>    4.4996    1.0000 </r>
       <r>    4.5781    1.0000 </r>
       <r>    4.6283    1.0000 </r>
       <r>    4.7995    1.0000 </r>
       <r>    4.8396    1.0000 </r>
       <r>    4.8984    1.0000 </r>
       <r>    4.9243    1.0000 </r>
       <r>    4.9624    1.0000 </r>
       <r>    5.0122    1.0000 </r>
       <r>    5.1277    1.0000 </r>
       <r>    5.2123    1.0000 </r>
       <r>    5.2742    1.0000 </r>
       <r>    5.3185    1.0000 </r>
       <r>    5.3617    1.0000 </r>
       <r>    5.4193    1.0000 </r>
       <r>    5.4590    1.0000 </r>
       <r>    5.4902    1.0000 </r>
       <r>    5.5380    1.0000 </r>
       <r>    5.5691    1.0000 </r>
       <r>    5.6049    1.0000 </r>
       <r>    5.6487    1.0000 </r>
       <r>    5.6956    1.0000 </r>
       <r>    5.7328    1.0000 </r>
       <r>    5.8220    1.0000 </r>
       <r>    5.9064    1.0000 </r>
       <r>    5.9252    1.0000 </r>
       <r>    6.0294    1.0000 </r>
       <r>    6.0853    1.0000 </r>
       <r>    6.1819    1.0000 </r>
       <r>    6.2446    1.0000 </r>
       <r>    6.2856    1.0000 </r>
       <r>    6.3364    1.0000 </r>
       <r>    6.3774    1.0000 </r>
       <r>    6.4319    1.0000 </r>
       <r>    6.5134    1.0000 </r>
       <r>    6.5578    1.0000 </r>
       <r>    6.6169    1.0000 </r>
       <r>    6.6978    1.0000 </r>
       <r>    6.7181    1.0000 </r>
       <r>    6.7446    1.0000 </r>
       <r>    6.8475    1.0000 </r>
       <r>    6.9042    1.0000 </r>
       <r>    6.9251    1.0000 </r>
       <r>    6.9783    1.0000 </r>
       <r>    7.1342    1.0000 </r>
       <r>    7.3686    1.0000 </r>
       <r>    7.5137    1.0000 </r>
       <r>    7.5687    1.0000 </r>
       <r>    7.7402    1.0008 </r>
       <r>    8.0798    1.0108 </r>
       <r>   10.2953   -0.0000 </r>
       <r>   10.4322   -0.0000 </r>
       <r>   10.5067   -0.0000 </r>
       <r>   11.2110   -0.0000 </r>
       <r>   11.2966   -0.0000 </r>
       <r>   11.4883   -0.0000 </r>
       <r>   11.6530   -0.0000 </r>
       <r>   11.8458   -0.0000 </r>
       <r>   12.0885   -0.0000 </r>
       <r>   12.2154   -0.0000 </r>
       <r>   12.6138   -0.0000 </r>
       <r>   12.7338   -0.0000 </r>
       <r>   12.7772   -0.0000 </r>
       <r>   12.8351   -0.0000 </r>
       <r>   12.9167   -0.0000 </r>
       <r>   12.9663   -0.0000 </r>
       <r>   13.0526   -0.0000 </r>
       <r>   13.0835   -0.0000 </r>
       <r>   13.1545   -0.0000 </r>
       <r>   13.1999   -0.0000 </r>
       <r>   13.2921   -0.0000 </r>
       <r>   13.3263   -0.0000 </r>
       <r>   13.4453   -0.0000 </r>
       <r>   13.4895   -0.0000 </r>
       <r>   13.5297   -0.0000 </r>
       <r>   13.5844   -0.0000 </r>
       <r>   13.6243   -0.0000 </r>
       <r>   13.6809   -0.0000 </r>
       <r>   13.7014   -0.0000 </r>
       <r>   13.7464    0.0000 </r>
       <r>   13.8439    0.0000 </r>
       <r>   13.8835    0.0000 </r>
       <r>   13.9726    0.0000 </r>
       <r>   14.0612    0.0000 </r>
       <r>   14.1602    0.0000 </r>
       <r>   14.5392    0.0000 </r>
       <r>   14.6104    0.0000 </r>
       <r>   14.6539    0.0000 </r>
       <r>   14.8309    0.0000 </r>
       <r>   14.8604    0.0000 </r>
      </set>
      <set comment="kpoint 6">
       <r>   -7.0574    1.0000 </r>
       <r>   -6.5525    1.0000 </r>
       <r>   -6.4359    1.0000 </r>
       <r>   -5.9410    1.0000 </r>
       <r>   -5.6038    1.0000 </r>
       <r>   -5.4248    1.0000 </r>
       <r>   -5.2460    1.0000 </r>
       <r>   -4.9749    1.0000 </r>
       <r>   -4.9318    1.0000 </r>
       <r>   -4.8517    1.0000 </r>
       <r>   -4.6501    1.0000 </r>
       <r>   -4.5720    1.0000 </r>
       <r>   -4.4673    1.0000 </r>
       <r>   -4.3840    1.0000 </r>
       <r>   -4.1090    1.0000 </r>
       <r>   -3.9516    1.0000 </r>
       <r>   -3.7128    1.0000 </r>
       <r>   -3.6368    1.0000 </r>
       <r>   -3.5027    1.0000 </r>
       <r>   -3.4196    1.0000 </r>
       <r>   -3.3519    1.0000 </r>
       <r>   -3.2254    1.0000 </r>
       <r>   -3.1675    1.0000 </r>
       <r>   -3.0841    1.0000 </r>
       <r>   -2.8897    1.0000 </r>
       <r>   -2.8552    1.0000 </r>
       <r>   -2.7459    1.0000 </r>
       <r>   -2.6592    1.0000 </r>
       <r>   -2.5974    1.0000 </r>
       <r>   -2.4278    1.0000 </r>
       <r>   -2.2997    1.0000 </r>
       <r>   -2.0577    1.0000 </r>
       <r>   -0.3001    1.0000 </r>
       <r>   -0.1173    1.0000 </r>
       <r>    0.3008    1.0000 </r>
       <r>    0.4261    1.0000 </r>
       <r>    0.4557    1.0000 </r>
       <r>    0.5687    1.0000 </r>
       <r>    0.5823    1.0000 </r>
       <r>    0.5993    1.0000 </r>
       <r>    0.6678    1.0000 </r>
       <r>    0.7394    1.0000 </r>
       <r>    0.8004    1.0000 </r>
       <r>    0.8258    1.0000 </r>
       <r>    0.9297    1.0000 </r>
       <r>    0.9857    1.0000 </r>
       <r>    1.0911    1.0000 </r>
       <r>    1.1851    1.0000 </r>
       <r>    1.3122    1.0000 </r>
       <r>    1.3831    1.0000 </r>
       <r>    1.8699    1.0000 </r>
       <r>    1.9385    1.0000 </r>
       <r>    2.0462    1.0000 </r>
       <r>    2.0727    1.0000 </r>
       <r>    2.1399    1.0000 </r>
       <r>    2.2085    1.0000 </r>
       <r>    2.3590    1.0000 </r>
       <r>    2.5230    1.0000 </r>
       <r>    2.5995    1.0000 </r>
       <r>    2.6751    1.0000 </r>
       <r>    2.8049    1.0000 </r>
       <r>    3.1553    1.0000 </r>
       <r>    3.1925    1.0000 </r>
       <r>    3.2257    1.0000 </r>
       <r>    3.3110    1.0000 </r>
       <r>    3.3779    1.0000 </r>
       <r>    3.4446    1.0000 </r>
       <r>    3.5473    1.0000 </r>
       <r>    3.8453    1.0000 </r>
[...]
      </set>
     </set>
    </set>
   </array>
  </eigenvalues>
  <separator name="orbital magnetization" >
   <v name="MAGDIPOLOUT">      0.00000000      0.00000000      0.00000000</v>
  </separator>
  <dos>
   <i name="efermi">      8.25911045 </i>
   <total>
    <array>
     <dimension dim="1">gridpoints</dimension>
     <dimension dim="2">spin</dimension>
     <field>energy</field>
     <field>total</field>
     <field>integrated</field>
     <set>
      <set comment="spin 1">
       <r>    -9.3927     0.0000     0.0000 </r>
       <r>    -9.3038     0.0000     0.0000 </r>
       <r>    -9.2148     0.0000     0.0000 </r>
       <r>    -9.1258     0.0000     0.0000 </r>
       <r>    -9.0368    -0.0000    -0.0000 </r>
       <r>    -8.9479    -0.0000    -0.0000 </r>
       <r>    -8.8589    -0.0000    -0.0000 </r>
       <r>    -8.7699    -0.0000    -0.0000 </r>
       <r>    -8.6809    -0.0000    -0.0000 </r>
       <r>    -8.5920    -0.0000    -0.0000 </r>
       <r>    -8.5030    -0.0000    -0.0000 </r>
       <r>    -8.4140    -0.0000    -0.0000 </r>
       <r>    -8.3250    -0.0000    -0.0000 </r>
       <r>    -8.2361    -0.0000    -0.0000 </r>
       <r>    -8.1471    -0.0000    -0.0000 </r>
       <r>    -8.0581    -0.0000    -0.0000 </r>
       <r>    -7.9691    -0.0001    -0.0000 </r>
       <r>    -7.8802    -0.0012    -0.0001 </r>
       <r>    -7.7912    -0.0066    -0.0007 </r>
       <r>    -7.7022    -0.0226    -0.0027 </r>
       <r>    -7.6132    -0.0460    -0.0068 </r>
       <r>    -7.5243    -0.0353    -0.0099 </r>
       <r>    -7.4353     0.1208     0.0008 </r>
       <r>    -7.3463     0.6139     0.0554 </r>
       <r>    -7.2574     1.5929     0.1972 </r>
       <r>    -7.1684     2.9578     0.4603 </r>
       <r>    -7.0794     4.2636     0.8397 </r>
       <r>    -6.9904     4.7806     1.2650 </r>
       <r>    -6.9015     4.1113     1.6308 </r>
       <r>    -6.8125     2.8105     1.8809 </r>
       <r>    -6.7235     2.2081     2.0774 </r>
       <r>    -6.6345     3.5533     2.3935 </r>
       <r>    -6.5456     6.7061     2.9902 </r>
       <r>    -6.4566     9.7360     3.8564 </r>
       <r>    -6.3676    10.2961     4.7725 </r>
       <r>    -6.2786     7.8126     5.4677 </r>
       <r>    -6.1897     4.1755     5.8392 </r>
       <r>    -6.1007     2.1434     6.0299 </r>
       <r>    -6.0117     3.2388     6.3181 </r>
       <r>    -5.9227     6.4899     6.8955 </r>
       <r>    -5.8338     9.5906     7.7488 </r>
       <r>    -5.7448    11.4121     8.7642 </r>
       <r>    -5.6558    12.1530     9.8455 </r>
       <r>    -5.5668    11.8516    10.9000 </r>
       <r>    -5.4779    10.2332    11.8105 </r>
       <r>    -5.3889     7.9540    12.5182 </r>
       <r>    -5.2999     6.7621    13.1199 </r>
       <r>    -5.2109     7.9481    13.8270 </r>
       <r>    -5.1220    11.2348    14.8266 </r>
       <r>    -5.0330    14.2000    16.0901 </r>
       <r>    -4.9440    13.5729    17.2977 </r>
       <r>    -4.8550     9.3108    18.1262 </r>
       <r>    -4.7661     5.7601    18.6387 </r>
       <r>    -4.6771     6.7932    19.2431 </r>
       <r>    -4.5881    11.4414    20.2611 </r>
       <r>    -4.4991    16.2667    21.7084 </r>
       <r>    -4.4102    18.6426    23.3671 </r>
       <r>    -4.3212    17.3689    24.9125 </r>
       <r>    -4.2322    15.0581    26.2523 </r>
       <r>    -4.1432    16.0104    27.6768 </r>
       <r>    -4.0543    19.0983    29.3761 </r>
       <r>    -3.9653    19.7761    31.1357 </r>
       <r>    -3.8763    17.2844    32.6735 </r>
       <r>    -3.7873    14.0863    33.9268 </r>
       <r>    -3.6984    12.7158    35.0582 </r>
       <r>    -3.6094    14.6988    36.3661 </r>
       <r>    -3.5204    18.7246    38.0321 </r>
       <r>    -3.4314    21.4690    39.9423 </r>
       <r>    -3.3425    21.5344    41.8583 </r>
       <r>    -3.2535    20.0577    43.6429 </r>
       <r>    -3.1645    18.1447    45.2573 </r>
       <r>    -3.0755    16.2700    46.7050 </r>
       <r>    -2.9866    15.8072    48.1114 </r>
       <r>    -2.8976    18.3111    49.7406 </r>
       <r>    -2.8086    22.2072    51.7165 </r>
       <r>    -2.7196    23.9329    53.8459 </r>
       <r>    -2.6307    22.2679    55.8272 </r>
       <r>    -2.5417    18.5250    57.4755 </r>
       <r>    -2.4527    14.7335    58.7864 </r>
       <r>    -2.3637    12.6182    59.9091 </r>
       <r>    -2.2748    12.2745    61.0012 </r>
       <r>    -2.1858    11.9728    62.0665 </r>
       <r>    -2.0968    10.1777    62.9720 </r>
       <r>    -2.0078     6.9837    63.5934 </r>
       <r>    -1.9189     3.5959    63.9133 </r>
       <r>    -1.8299     1.1986    64.0200 </r>
       <r>    -1.7409     0.1006    64.0289 </r>
       <r>    -1.6519    -0.1571    64.0150 </r>
       <r>    -1.5630    -0.1130    64.0049 </r>
       <r>    -1.4740    -0.0428    64.0011 </r>
       <r>    -1.3850    -0.0104    64.0002 </r>
       <r>    -1.2960    -0.0017    64.0000 </r>
       <r>    -1.2071    -0.0003    64.0000 </r>
       <r>    -1.1181    -0.0013    63.9999 </r>
       <r>    -1.0291    -0.0074    63.9992 </r>
       <r>    -0.9401    -0.0243    63.9971 </r>
       <r>    -0.8512    -0.0350    63.9939 </r>
       <r>    -0.7622     0.0368    63.9972 </r>
       <r>    -0.6732     0.2382    64.0184 </r>
       <r>    -0.5842     0.4244    64.0562 </r>
       <r>    -0.4953     0.5524    64.1053 </r>
       <r>    -0.4063     1.3422    64.2247 </r>
       <r>    -0.3173     3.8428    64.5667 </r>
       <r>    -0.2283     7.4886    65.2330 </r>
       <r>    -0.1394     9.7193    66.0977 </r>
       <r>    -0.0504     9.2050    66.9167 </r>
       <r>     0.0386     7.7794    67.6089 </r>
       <r>     0.1275     7.9673    68.3178 </r>
       <r>     0.2165    11.0726    69.3030 </r>
       <r>     0.3055    16.4780    70.7691 </r>
       <r>     0.3945    20.9090    72.6295 </r>
       <r>     0.4834    21.9632    74.5836 </r>
       <r>     0.5724    21.8507    76.5278 </r>
       <r>     0.6614    24.0007    78.6633 </r>
       <r>     0.7504    28.1214    81.1653 </r>
       <r>     0.8393    30.9597    83.9200 </r>
       <r>     0.9283    30.4869    86.6325 </r>
       <r>     1.0173    28.1653    89.1385 </r>
       <r>     1.1063    27.3934    91.5759 </r>
       <r>     1.1952    29.6402    94.2131 </r>
       <r>     1.2842    32.0293    97.0629 </r>
       <r>     1.3732    29.7603    99.7108 </r>
       <r>     1.4622    21.3278   101.6084 </r>
       <r>     1.5511    10.4595   102.5391 </r>
       <r>     1.6401     2.5574   102.7666 </r>
       <r>     1.7291     0.5541   102.8159 </r>
       <r>     1.8181     4.1983   103.1895 </r>
       <r>     1.9070    10.7896   104.1495 </r>
       <r>     1.9960    16.7292   105.6379 </r>
       <r>     2.0850    19.8224   107.4016 </r>
       <r>     2.1740    19.2778   109.1169 </r>
       <r>     2.2629    15.2506   110.4738 </r>
       <r>     2.3519    10.2226   111.3833 </r>
       <r>     2.4409     8.0870   112.1029 </r>
       <r>     2.5299    10.7055   113.0554 </r>
       <r>     2.6188    15.6423   114.4472 </r>
       <r>     2.7078    17.8410   116.0346 </r>
       <r>     2.7968    15.6165   117.4240 </r>
       <r>     2.8858    13.3027   118.6076 </r>
       <r>     2.9747    15.6841   120.0031 </r>
       <r>     3.0637    21.9093   121.9525 </r>
       <r>     3.1527    27.3294   124.3841 </r>
       <r>     3.2417    29.4760   127.0067 </r>
       <r>     3.3306    29.1675   129.6019 </r>
       <r>     3.4196    27.9747   132.0910 </r>
       <r>     3.5086    26.5092   134.4496 </r>
       <r>     3.5976    23.8458   136.5713 </r>
       <r>     3.6865    19.7557   138.3290 </r>
       <r>     3.7755    16.9674   139.8387 </r>
       <r>     3.8645    18.0302   141.4429 </r>
       <r>     3.9535    21.0400   143.3150 </r>
       <r>     4.0424    21.8026   145.2548 </r>
       <r>     4.1314    19.8753   147.0232 </r>
       <r>     4.2204    19.8448   148.7889 </r>
       <r>     4.3094    24.9968   151.0130 </r>
       <r>     4.3983    31.8245   153.8446 </r>
       <r>     4.4873    34.7738   156.9386 </r>
       <r>     4.5763    33.4057   159.9108 </r>
       <r>     4.6653    31.1859   162.6856 </r>
       <r>     4.7542    31.1221   165.4547 </r>
       <r>     4.8432    33.9439   168.4748 </r>
       <r>     4.9322    37.0336   171.7699 </r>
       <r>     5.0212    36.7058   175.0358 </r>
       <r>     5.1101    33.3109   177.9996 </r>
       <r>     5.1991    30.6768   180.7290 </r>
       <r>     5.2881    30.3490   183.4293 </r>
       <r>     5.3771    30.5703   186.1493 </r>
       <r>     5.4660    31.2104   188.9263 </r>
       <r>     5.5550    34.0998   191.9603 </r>
       <r>     5.6440    37.6816   195.3130 </r>
       <r>     5.7330    38.3685   198.7268 </r>
       <r>     5.8219    36.6734   201.9898 </r>
       <r>     5.9109    35.2615   205.1272 </r>
       <r>     5.9999    33.5314   208.1106 </r>
       <r>     6.0889    29.8977   210.7708 </r>
       <r>     6.1778    26.7610   213.1518 </r>
       <r>     6.2668    27.9233   215.6363 </r>
       <r>     6.3558    32.3779   218.5171 </r>
       <r>     6.4448    35.1481   221.6444 </r>
       <r>     6.5337    33.7304   224.6455 </r>
       <r>     6.6227    30.0438   227.3187 </r>
       <r>     6.7117    27.1171   229.7314 </r>
       <r>     6.8007    27.0575   232.1388 </r>
       <r>     6.8896    30.0206   234.8099 </r>
       <r>     6.9786    33.0900   237.7541 </r>
       <r>     7.0676    32.3220   240.6299 </r>
       <r>     7.1565    26.6581   243.0018 </r>
       <r>     7.2455    19.3279   244.7215 </r>
       <r>     7.3345    14.8116   246.0394 </r>
       <r>     7.4235    14.4311   247.3234 </r>
       <r>     7.5124    16.4142   248.7838 </r>
       <r>     7.6014    18.4083   250.4217 </r>
       <r>     7.6904    18.3203   252.0518 </r>
       <r>     7.7794    15.3565   253.4181 </r>
       <r>     7.8683    10.9019   254.3881 </r>
       <r>     7.9573     7.1911   255.0279 </r>
       <r>     8.0463     5.0371   255.4761 </r>
       <r>     8.1353     3.5475   255.7917 </r>
       <r>     8.2242     1.9697   255.9670 </r>
       <r>     8.3132     0.6249   256.0226 </r>
       <r>     8.4022    -0.0301   256.0199 </r>
       <r>     8.4912    -0.1344   256.0079 </r>
       <r>     8.5801    -0.0673   256.0020 </r>
       <r>     8.6691    -0.0188   256.0003 </r>
       <r>     8.7581    -0.0058   255.9998 </r>
       <r>     8.8471    -0.0111   255.9988 </r>
       <r>     8.9360    -0.0224   255.9968 </r>
       <r>     9.0250    -0.0007   255.9967 </r>
       <r>     9.1140     0.1192   256.0073 </r>
       <r>     9.2030     0.3239   256.0361 </r>
       <r>     9.2919     0.4799   256.0788 </r>
       <r>     9.3809     0.5563   256.1283 </r>
       <r>     9.4699     0.8202   256.2013 </r>
       <r>     9.5589     1.4436   256.3298 </r>
       <r>     9.6478     1.8708   256.4962 </r>
       <r>     9.7368     1.4082   256.6215 </r>
       <r>     9.8258     0.4300   256.6598 </r>
       <r>     9.9148    -0.0905   256.6517 </r>
       <r>    10.0037     0.3594   256.6837 </r>
       <r>    10.0927     1.8561   256.8488 </r>
       <r>    10.1817     4.0982   257.2135 </r>
       <r>    10.2707     6.2942   257.7735 </r>
       <r>    10.3596     8.0044   258.4857 </r>
       <r>    10.4486     9.7287   259.3513 </r>
       <r>    10.5376    11.1858   260.3465 </r>
       <r>    10.6266    10.6678   261.2957 </r>
       <r>    10.7155     7.7595   261.9861 </r>
       <r>    10.8045     4.0750   262.3487 </r>
       <r>    10.8935     1.1533   262.4513 </r>
       <r>    10.9825    -0.2677   262.4275 </r>
       <r>    11.0714     0.2697   262.4515 </r>
       <r>    11.1604     2.8837   262.7081 </r>
       <r>    11.2494     6.4425   263.2813 </r>
       <r>    11.3384     8.9371   264.0764 </r>
       <r>    11.4273     9.9315   264.9601 </r>
       <r>    11.5163    10.8982   265.9298 </r>
       <r>    11.6053    12.5474   267.0462 </r>
       <r>    11.6943    14.2788   268.3166 </r>
       <r>    11.7832    15.8090   269.7232 </r>
       <r>    11.8722    16.9676   271.2329 </r>
       <r>    11.9612    17.4301   272.7837 </r>
       <r>    12.0502    17.2996   274.3230 </r>
       <r>    12.1391    15.8042   275.7291 </r>
       <r>    12.2281    11.9884   276.7958 </r>
       <r>    12.3171     8.1502   277.5210 </r>
       <r>    12.4061     7.8910   278.2231 </r>
       <r>    12.4950    11.6263   279.2575 </r>
       <r>    12.5840    17.4466   280.8098 </r>
       <r>    12.6730    23.2991   282.8828 </r>
       <r>    12.7620    27.7431   285.3513 </r>
       <r>    12.8509    30.3959   288.0557 </r>
       <r>    12.9399    31.0194   290.8157 </r>
       <r>    13.0289    29.6263   293.4517 </r>
       <r>    13.1179    27.2289   295.8744 </r>
       <r>    13.2068    24.2907   298.0356 </r>
       <r>    13.2958    20.8855   299.8939 </r>
       <r>    13.3848    19.6957   301.6463 </r>
       <r>    13.4738    23.5470   303.7414 </r>
       <r>    13.5627    29.2346   306.3425 </r>
       <r>    13.6517    31.2004   309.1186 </r>
       <r>    13.7407    29.7717   311.7675 </r>
       <r>    13.8297    29.0156   314.3492 </r>
       <r>    13.9186    30.0078   317.0191 </r>
       <r>    14.0076    30.5065   319.7334 </r>
       <r>    14.0966    28.4505   322.2648 </r>
       <r>    14.1856    23.0231   324.3133 </r>
       <r>    14.2745    15.0321   325.6507 </r>
       <r>    14.3635     8.1102   326.3723 </r>
       <r>    14.4525     6.8370   326.9807 </r>
       <r>    14.5414    12.1294   328.0599 </r>
       <r>    14.6304    19.2642   329.7739 </r>
       <r>    14.7194    22.0337   331.7343 </r>
       <r>    14.8084    18.4918   333.3796 </r>
       <r>    14.8973    11.3017   334.3852 </r>
       <r>    14.9863     4.6249   334.7967 </r>
       <r>    15.0753     1.5545   334.9350 </r>
       <r>    15.1643     2.2729   335.1372 </r>
       <r>    15.2532     3.9893   335.4922 </r>
       <r>    15.3422     3.8364   335.8335 </r>
       <r>    15.4312     1.9383   336.0060 </r>
       <r>    15.5202     0.3124   336.0338 </r>
       <r>    15.6091    -0.1950   336.0164 </r>
       <r>    15.6981    -0.1368   336.0043 </r>
       <r>    15.7871    -0.0403   336.0007 </r>
       <r>    15.8761    -0.0069   336.0001 </r>
       <r>    15.9650    -0.0007   336.0000 </r>
       <r>    16.0540    -0.0001   336.0000 </r>
       <r>    16.1430    -0.0000   336.0000 </r>
       <r>    16.2320    -0.0000   336.0000 </r>
       <r>    16.3209    -0.0000   336.0000 </r>
       <r>    16.4099    -0.0000   336.0000 </r>
       <r>    16.4989    -0.0000   336.0000 </r>
       <r>    16.5879    -0.0000   336.0000 </r>
       <r>    16.6768     0.0000   336.0000 </r>
       <r>    16.7658     0.0000   336.0000 </r>
       <r>    16.8548     0.0000   336.0000 </r>
       <r>    16.9438     0.0000   336.0000 </r>
       <r>    17.0327     0.0000   336.0000 </r>
       <r>    17.1217     0.0000   336.0000 </r>
       <r>    17.2107     0.0000   336.0000 </r>
       <r>    17.2997     0.0000   336.0000 </r>
      </set>
     </set>
    </array>
   </total>
  </dos>
 </calculation>
 <structure name="finalpos" >
  <crystal>
   <varray name="basis" >
    <v>       8.74331558       0.00000000       0.00000000 </v>
    <v>       0.00000000       8.74331558       0.00000000 </v>
    <v>       0.00000000       0.00000000       8.74331558 </v>
   </varray>
   <i name="volume">    668.38771987 </i>
   <varray name="rec_basis" >
    <v>       0.11437309       0.00000000       0.00000000 </v>
    <v>       0.00000000       0.11437309       0.00000000 </v>
    <v>       0.00000000       0.00000000       0.11437309 </v>
   </varray>
  </crystal>
  <varray name="positions" >
   <v>       0.12341608       0.12266945       0.12161588 </v>
   <v>       0.12941362       0.37707818       0.37351653 </v>
   <v>       0.38540400       0.13071894       0.37547441 </v>
   <v>       0.38273739       0.38144335       0.11845313 </v>
   <v>       0.12916817       0.12186521       0.61464563 </v>
   <v>       0.12165427       0.38282903       0.87533294 </v>
   <v>       0.37814099       0.13408799       0.87073840 </v>
   <v>       0.37650839       0.37734544       0.62463128 </v>
   <v>       0.12651893       0.62477883       0.12516365 </v>
   <v>       0.12451878       0.87872988       0.37706056 </v>
   <v>       0.37146275       0.62079159       0.37099277 </v>
   <v>       0.37994318       0.87816553       0.13045785 </v>
   <v>       0.12113078       0.63014962       0.61997097 </v>
   <v>       0.12093997       0.87454765       0.86993567 </v>
   <v>       0.36822890       0.62703263       0.88140254 </v>
   <v>       0.36636518       0.87609718       0.61985606 </v>
   <v>       0.62606178       0.12690514       0.12733980 </v>
   <v>       0.62494896       0.37241371       0.37152061 </v>
   <v>       0.87589887       0.11621358       0.37729203 </v>
   <v>       0.87993016       0.36892500       0.12186328 </v>
   <v>       0.62638197       0.12814932       0.62572399 </v>
   <v>       0.62178714       0.37730265       0.87787402 </v>
   <v>       0.88058078       0.12433613       0.87906988 </v>
   <v>       0.87363546       0.37568797       0.63035027 </v>
   <v>       0.62155957       0.63029481       0.12030407 </v>
   <v>       0.63028377       0.87524219       0.38156661 </v>
   <v>       0.87909247       0.62928977       0.36798795 </v>
   <v>       0.86727775       0.87029064       0.11727277 </v>
   <v>       0.62522131       0.63483832       0.61793088 </v>
   <v>       0.62581068       0.87589083       0.88292670 </v>
   <v>       0.87528003       0.62858171       0.87573581 </v>
   <v>       0.87106414       0.87904926       0.62667592 </v>
   <v>       0.99869902       0.00063824       0.99834613 </v>
   <v>       0.00208431       0.25039483       0.25133948 </v>
   <v>       0.25185530       0.99862419       0.24372802 </v>
   <v>       0.24773294       0.24704887       0.00717934 </v>
   <v>       0.00154661       0.99567559       0.49810616 </v>
   <v>       0.99970493       0.25944660       0.75226573 </v>
   <v>       0.24511005       0.99886695       0.75510574 </v>
   <v>       0.24893757       0.24355597       0.50207637 </v>
   <v>       0.99725207       0.50404040       0.00801111 </v>
   <v>       0.00103996       0.75230902       0.24785942 </v>
   <v>       0.24606377       0.49622399       0.25553576 </v>
   <v>       0.25633461       0.75099203       0.99564693 </v>
   <v>       0.99952497       0.49873878       0.49688733 </v>
   <v>       0.01181906       0.75474140       0.74698533 </v>
   <v>       0.25038068       0.49804002       0.74628496 </v>
   <v>       0.25169176       0.74367452       0.49856349 </v>
   <v>       0.50908644       0.01636271       0.00440388 </v>
   <v>       0.50140171       0.24314655       0.25152650 </v>
   <v>       0.74903764       0.00551799       0.25613104 </v>
   <v>       0.74965045       0.24689873       0.98833546 </v>
   <v>       0.50312137       0.99751461       0.50203775 </v>
   <v>       0.49368577       0.24056658       0.74797128 </v>
   <v>       0.74686793       0.00460656       0.75334880 </v>
   <v>       0.74647019       0.24106910       0.50977137 </v>
   <v>       0.49736202       0.48936001       0.99650343 </v>
   <v>       0.50189065       0.75331245       0.24694432 </v>
   <v>       0.74616412       0.48890950       0.25119624 </v>
   <v>       0.75215482       0.74986036       0.99636554 </v>
   <v>       0.51321700       0.49653903       0.50012779 </v>
   <v>       0.49918865       0.75970712       0.75134366 </v>
   <v>       0.75033297       0.50313309       0.75188471 </v>
   <v>       0.74661706       0.74752915       0.50431100 </v>
  </varray>
 </structure>
</modeling>
