unknown system                          
           1
     8.743316    0.000000    0.000000
     0.000000    8.743316    0.000000
     0.000000    0.000000    8.743316
   C    Si
    32    32
Direct configuration=     1
   0.12341608  0.12266945  0.12161588
   0.12941362  0.37707818  0.37351653
   0.38540400  0.13071894  0.37547441
   0.38273739  0.38144335  0.11845313
   0.12916817  0.12186521  0.61464563
   0.12165427  0.38282903  0.87533294
   0.37814099  0.13408799  0.87073840
   0.37650839  0.37734544  0.62463128
   0.12651893  0.62477883  0.12516365
   0.12451878  0.87872988  0.37706056
   0.37146275  0.62079159  0.37099277
   0.37994318  0.87816553  0.13045785
   0.12113078  0.63014962  0.61997097
   0.12093997  0.87454765  0.86993567
   0.36822890  0.62703263  0.88140254
   0.36636518  0.87609718  0.61985606
   0.62606178  0.12690514  0.12733980
   0.62494896  0.37241371  0.37152061
   0.87589887  0.11621358  0.37729203
   0.87993016  0.36892500  0.12186328
   0.62638197  0.12814932  0.62572399
   0.62178714  0.37730265  0.87787402
   0.88058078  0.12433613  0.87906988
   0.87363546  0.37568797  0.63035027
   0.62155957  0.63029481  0.12030407
   0.63028377  0.87524219  0.38156661
   0.87909247  0.62928977  0.36798795
   0.86727775  0.87029064  0.11727277
   0.62522131  0.63483832  0.61793088
   0.62581068  0.87589083  0.88292670
   0.87528003  0.62858171  0.87573581
   0.87106414  0.87904926  0.62667592
   0.99869902  0.00063824  0.99834613
   0.00208431  0.25039483  0.25133948
   0.25185530  0.99862419  0.24372802
   0.24773294  0.24704887  0.00717934
   0.00154661  0.99567559  0.49810616
   0.99970493  0.25944660  0.75226573
   0.24511005  0.99886695  0.75510574
   0.24893757  0.24355597  0.50207637
   0.99725207  0.50404040  0.00801111
   0.00103996  0.75230902  0.24785942
   0.24606377  0.49622399  0.25553576
   0.25633461  0.75099203  0.99564693
   0.99952497  0.49873878  0.49688733
   0.01181906  0.75474140  0.74698533
   0.25038068  0.49804002  0.74628496
   0.25169176  0.74367452  0.49856349
   0.50908644  0.01636271  0.00440388
   0.50140171  0.24314655  0.25152650
   0.74903764  0.00551799  0.25613104
   0.74965045  0.24689873  0.98833546
   0.50312137  0.99751461  0.50203775
   0.49368577  0.24056658  0.74797128
   0.74686793  0.00460656  0.75334880
   0.74647019  0.24106910  0.50977137
   0.49736202  0.48936001  0.99650343
   0.50189065  0.75331245  0.24694432
   0.74616412  0.48890950  0.25119624
   0.75215482  0.74986036  0.99636554
   0.51321700  0.49653903  0.50012779
   0.49918865  0.75970712  0.75134366
   0.75033297  0.50313309  0.75188471
   0.74661706  0.74752915  0.50431100
