       N       E                     dE             d eps       ncg     rms          rms(c)
DAV:   1     0.669001860285E+03    0.66900E+03   -0.99556E+04  4704   0.111E+03
DAV:   2    -0.462408900778E+03   -0.11314E+04   -0.10710E+04  5808   0.221E+02
DAV:   3    -0.537681254543E+03   -0.75272E+02   -0.74570E+02  5688   0.561E+01
DAV:   4    -0.539349975192E+03   -0.16687E+01   -0.16616E+01  5728   0.905E+00
DAV:   5    -0.539395699496E+03   -0.45724E-01   -0.45651E-01  5536   0.143E+00    0.492E+01
DAV:   6    -0.482720975655E+03    0.56675E+02   -0.19027E+02  5344   0.234E+01    0.218E+01
DAV:   7    -0.481363632419E+03    0.13573E+01   -0.15664E+01  5888   0.702E+00    0.974E+00
DAV:   8    -0.481135605728E+03    0.22803E+00   -0.10111E+00  5384   0.196E+00    0.262E+00
DAV:   9    -0.481119339930E+03    0.16266E-01   -0.14047E-01  5464   0.811E-01    0.434E-01
DAV:  10    -0.481122419565E+03   -0.30796E-02   -0.13077E-02  5704   0.252E-01    0.237E-01
DAV:  11    -0.481123407087E+03   -0.98752E-03   -0.19193E-03  5184   0.112E-01    0.815E-02
DAV:  12    -0.481123438086E+03   -0.30999E-04   -0.29497E-04  6288   0.423E-02    0.400E-02
DAV:  13    -0.481123449759E+03   -0.11673E-04   -0.85698E-05  5152   0.218E-02    0.104E-02
DAV:  14    -0.481123455841E+03   -0.60816E-05   -0.64194E-06  5424   0.564E-03    0.532E-03
DAV:  15    -0.481123457875E+03   -0.20338E-05   -0.21673E-06  5728   0.330E-03    0.443E-03
DAV:  16    -0.481123457468E+03    0.40626E-06   -0.30178E-07  5816   0.143E-03    0.139E-03
DAV:  17    -0.481123457762E+03   -0.29318E-06   -0.10475E-07  5240   0.702E-04    0.790E-04
DAV:  18    -0.481123457778E+03   -0.16236E-07   -0.72182E-09  2736   0.228E-04    0.341E-04
DAV:  19    -0.481123457747E+03    0.30377E-07   -0.53922E-09  2704   0.159E-04    0.992E-05
DAV:  20    -0.481123457757E+03   -0.99280E-08   -0.70249E-10  2688   0.780E-05
   1 F= -.48112346E+03 E0= -.48112683E+03  d E =0.101041E-01
