<?xml version="1.0" encoding="ISO-8859-1"?>
<modeling>
 <generator>
  <i name="program" type="string">vasp </i>
  <i name="version" type="string">6.2.1  </i>
  <i name="subversion" type="string">16May21 (build Jun 06 2020 10:27:25) complex                          parallel </i>
  <i name="platform" type="string">LinuxIFC </i>
  <i name="date" type="string">2024 01 12 </i>
  <i name="time" type="string">17:51:52 </i>
 </generator>
 <incar>
  <i type="int" name="NELM">    60</i>
  <i type="int" name="IBRION">     1</i>
  <i name="EDIFF">      0.00000001</i>
  <i type="int" name="NSW">     0</i>
  <i type="int" name="ISIF">     3</i>
  <i type="int" name="ISYM">     0</i>
  <i type="logical" name="LWAVE"> F  </i>
  <i type="logical" name="LCHARG"> F  </i>
  <i type="string" name="GGA">PE</i>
 </incar>
 <primitive_cell>
  <structure name="primitive_cell" >
   <crystal>
    <varray name="basis" >
     <v>       8.74331558       0.00000000       0.00000000 </v>
     <v>       0.00000000       8.74331558       0.00000000 </v>
     <v>       0.00000000       0.00000000       8.74331558 </v>
    </varray>
    <i name="volume">    668.38771987 </i>
    <varray name="rec_basis" >
     <v>       0.11437309       0.00000000       0.00000000 </v>
     <v>       0.00000000       0.11437309       0.00000000 </v>
     <v>       0.00000000       0.00000000       0.11437309 </v>
    </varray>
   </crystal>
   <varray name="positions" >
    <v>       0.12250585       0.12043040       0.12618255 </v>
    <v>       0.12506232       0.37040724       0.37634129 </v>
    <v>       0.37532397       0.12261216       0.37111722 </v>
    <v>       0.37832435       0.37087068       0.12694211 </v>
    <v>       0.12158772       0.12558939       0.62444628 </v>
    <v>       0.12747823       0.37438970       0.87481855 </v>
    <v>       0.37592487       0.12283201       0.88105824 </v>
    <v>       0.37399387       0.37434033       0.62721570 </v>
    <v>       0.13041806       0.62409985       0.12471481 </v>
    <v>       0.12137702       0.87303418       0.37706409 </v>
    <v>       0.37703057       0.62523470       0.37451988 </v>
    <v>       0.37333447       0.87497905       0.12193648 </v>
    <v>       0.13152018       0.62350201       0.62631704 </v>
    <v>       0.12557074       0.87492767       0.87527858 </v>
    <v>       0.37631502       0.62211952       0.87385125 </v>
    <v>       0.37620495       0.87628726       0.62743091 </v>
    <v>       0.62504585       0.12097082       0.12336347 </v>
    <v>       0.63026445       0.37411445       0.37284048 </v>
    <v>       0.87325143       0.12672878       0.37566745 </v>
    <v>       0.87742894       0.37116809       0.12144165 </v>
    <v>       0.62683128       0.11946512       0.62421544 </v>
    <v>       0.62624402       0.37730606       0.87450024 </v>
    <v>       0.87724016       0.12423655       0.87149244 </v>
    <v>       0.87639309       0.37408709       0.62562546 </v>
    <v>       0.62918798       0.62644636       0.12298144 </v>
    <v>       0.62638201       0.87499441       0.37806276 </v>
    <v>       0.87443382       0.62291451       0.37501753 </v>
    <v>       0.87562223       0.87364647       0.12221345 </v>
    <v>       0.62600979       0.62604307       0.62766482 </v>
    <v>       0.61981930       0.87600899       0.87594672 </v>
    <v>       0.87964183       0.62760760       0.87214670 </v>
    <v>       0.87470817       0.87382961       0.62601457 </v>
    <v>       0.99949986       0.99810121       0.99914354 </v>
    <v>       0.00090550       0.25171706       0.24889043 </v>
    <v>       0.24615275       0.99964787       0.24990571 </v>
    <v>       0.25247424       0.25063912       0.99605592 </v>
    <v>       0.00126323       0.00315517       0.50082511 </v>
    <v>       0.00074740       0.24895746       0.74978078 </v>
    <v>       0.25000252       0.99787420       0.75396933 </v>
    <v>       0.25054019       0.24896384       0.49883149 </v>
    <v>       0.00337870       0.50041898       0.99890390 </v>
    <v>       0.00343196       0.74866747       0.24780974 </v>
    <v>       0.25222786       0.49757187       0.24923303 </v>
    <v>       0.24513016       0.74429987       0.00073935 </v>
    <v>       0.00147443       0.50609182       0.50106242 </v>
    <v>       0.00014889       0.74961771       0.74708503 </v>
    <v>       0.24744885       0.49983692       0.75162531 </v>
    <v>       0.25124260       0.74807988       0.49920295 </v>
    <v>       0.50412076       0.00599456       0.99571243 </v>
    <v>       0.50182886       0.24984631       0.24726726 </v>
    <v>       0.75438539       0.00050566       0.25486039 </v>
    <v>       0.75016990       0.25296935       0.00057379 </v>
    <v>       0.50282733       0.00012548       0.50075645 </v>
    <v>       0.50104191       0.24685977       0.74883370 </v>
    <v>       0.74995513       0.00373573       0.75297875 </v>
    <v>       0.75044315       0.24904098       0.50209637 </v>
    <v>       0.50264506       0.50151421       0.00123549 </v>
    <v>       0.49886546       0.75351512       0.24955406 </v>
    <v>       0.74930369       0.49583551       0.24605573 </v>
    <v>       0.74876795       0.75262952       0.99892295 </v>
    <v>       0.49863269       0.49933539       0.49869028 </v>
    <v>       0.49953736       0.75142291       0.74741570 </v>
    <v>       0.75171130       0.50207717       0.75008128 </v>
    <v>       0.74927686       0.74973185       0.49701201 </v>
   </varray>
  </structure>
  <varray name="primitive_index" >
   <v type="int" >        1 </v>
   <v type="int" >        2 </v>
   <v type="int" >        3 </v>
   <v type="int" >        4 </v>
   <v type="int" >        5 </v>
   <v type="int" >        6 </v>
   <v type="int" >        7 </v>
   <v type="int" >        8 </v>
   <v type="int" >        9 </v>
   <v type="int" >       10 </v>
   <v type="int" >       11 </v>
   <v type="int" >       12 </v>
   <v type="int" >       13 </v>
   <v type="int" >       14 </v>
   <v type="int" >       15 </v>
   <v type="int" >       16 </v>
   <v type="int" >       17 </v>
   <v type="int" >       18 </v>
   <v type="int" >       19 </v>
   <v type="int" >       20 </v>
   <v type="int" >       21 </v>
   <v type="int" >       22 </v>
   <v type="int" >       23 </v>
   <v type="int" >       24 </v>
   <v type="int" >       25 </v>
   <v type="int" >       26 </v>
   <v type="int" >       27 </v>
   <v type="int" >       28 </v>
   <v type="int" >       29 </v>
   <v type="int" >       30 </v>
   <v type="int" >       31 </v>
   <v type="int" >       32 </v>
   <v type="int" >       33 </v>
   <v type="int" >       34 </v>
   <v type="int" >       35 </v>
   <v type="int" >       36 </v>
   <v type="int" >       37 </v>
   <v type="int" >       38 </v>
   <v type="int" >       39 </v>
   <v type="int" >       40 </v>
   <v type="int" >       41 </v>
   <v type="int" >       42 </v>
   <v type="int" >       43 </v>
   <v type="int" >       44 </v>
   <v type="int" >       45 </v>
   <v type="int" >       46 </v>
   <v type="int" >       47 </v>
   <v type="int" >       48 </v>
   <v type="int" >       49 </v>
   <v type="int" >       50 </v>
   <v type="int" >       51 </v>
   <v type="int" >       52 </v>
   <v type="int" >       53 </v>
   <v type="int" >       54 </v>
   <v type="int" >       55 </v>
   <v type="int" >       56 </v>
   <v type="int" >       57 </v>
   <v type="int" >       58 </v>
   <v type="int" >       59 </v>
   <v type="int" >       60 </v>
   <v type="int" >       61 </v>
   <v type="int" >       62 </v>
   <v type="int" >       63 </v>
   <v type="int" >       64 </v>
  </varray>
 </primitive_cell>
 <kpoints>
  <generation param="Monkhorst-Pack">
   <v type="int" name="divisions">       3        3        3 </v>
   <v name="usershift">      0.00000000       0.00000000       0.00000000 </v>
   <v name="genvec1">      0.33333333       0.00000000       0.00000000 </v>
   <v name="genvec2">      0.00000000       0.33333333       0.00000000 </v>
   <v name="genvec3">      0.00000000       0.00000000       0.33333333 </v>
   <v name="shift">      0.00000000       0.00000000       0.00000000 </v>
  </generation>
  <varray name="kpointlist" >
   <v>       0.00000000       0.00000000       0.00000000 </v>
   <v>       0.33333333       0.00000000       0.00000000 </v>
   <v>       0.00000000       0.33333333       0.00000000 </v>
   <v>       0.00000000       0.00000000       0.33333333 </v>
   <v>       0.33333333       0.33333333       0.00000000 </v>
   <v>       0.00000000       0.33333333       0.33333333 </v>
   <v>       0.33333333       0.00000000       0.33333333 </v>
   <v>      -0.33333333       0.33333333       0.00000000 </v>
   <v>      -0.33333333       0.00000000       0.33333333 </v>
   <v>       0.00000000      -0.33333333       0.33333333 </v>
   <v>       0.33333333       0.33333333       0.33333333 </v>
   <v>      -0.33333333       0.33333333       0.33333333 </v>
   <v>      -0.33333333      -0.33333333       0.33333333 </v>
   <v>       0.33333333      -0.33333333       0.33333333 </v>
  </varray>
  <varray name="weights" >
   <v>       0.03703704 </v>
   <v>       0.07407407 </v>
   <v>       0.07407407 </v>
   <v>       0.07407407 </v>
   <v>       0.07407407 </v>
   <v>       0.07407407 </v>
   <v>       0.07407407 </v>
   <v>       0.07407407 </v>
   <v>       0.07407407 </v>
   <v>       0.07407407 </v>
   <v>       0.07407407 </v>
   <v>       0.07407407 </v>
   <v>       0.07407407 </v>
   <v>       0.07407407 </v>
  </varray>
 </kpoints>
 <parameters>
  <separator name="general" >
   <i type="string" name="SYSTEM">unknown system</i>
   <i type="logical" name="LCOMPAT"> F  </i>
  </separator>
  <separator name="electronic" >
   <i type="string" name="PREC">normal</i>
   <i name="ENMAX">    400.00000000</i>
   <i name="ENAUG">    644.87300000</i>
   <i name="EDIFF">      0.00000001</i>
   <i type="int" name="IALGO">    38</i>
   <i type="int" name="IWAVPR">    10</i>
   <i type="int" name="NBANDS">   168</i>
   <i type="int" name="NBANDSLOW">    -1</i>
   <i type="int" name="NBANDSHIGH">    -1</i>
   <i name="NELECT">    256.00000000</i>
   <i type="int" name="TURBO">     0</i>
   <i type="int" name="IRESTART">     0</i>
   <i type="int" name="NREBOOT">     0</i>
   <i type="int" name="NMIN">     0</i>
   <i name="EREF">      0.00000000</i>
   <separator name="electronic smearing" >
    <i type="int" name="ISMEAR">     1</i>
    <i name="SIGMA">      0.20000000</i>
    <i name="KSPACING">      0.50000000</i>
    <i type="logical" name="KGAMMA"> T  </i>
    <i type="logical" name="KBLOWUP"> T  </i>
   </separator>
   <separator name="electronic projectors" >
    <i type="logical" name="LREAL"> F  </i>
    <v name="ROPT">      0.00000000      0.00000000</v>
    <i type="int" name="LMAXPAW">  -100</i>
    <i type="int" name="LMAXMIX">     2</i>
    <i type="logical" name="NLSPLINE"> F  </i>
   </separator>
   <separator name="electronic startup" >
    <i type="int" name="ISTART">     0</i>
    <i type="int" name="ICHARG">     2</i>
    <i type="int" name="INIWAV">     1</i>
   </separator>
   <separator name="electronic spin" >
    <i type="int" name="ISPIN">     1</i>
    <i type="logical" name="LNONCOLLINEAR"> F  </i>
    <v name="MAGMOM">      1.00000000      1.00000000      1.00000000      1.00000000      1.00000000      1.00000000      1.00000000      1.00000000      1.00000000      1.00000000      1.00000000      1.00000000      1.00000000      1.00000000      1.00000000      1.00000000      1.00000000      1.00000000      1.00000000      1.00000000
      1.00000000      1.00000000      1.00000000      1.00000000      1.00000000      1.00000000      1.00000000      1.00000000      1.00000000      1.00000000      1.00000000      1.00000000      1.00000000      1.00000000      1.00000000      1.00000000      1.00000000      1.00000000      1.00000000      1.00000000
      1.00000000      1.00000000      1.00000000      1.00000000      1.00000000      1.00000000      1.00000000      1.00000000      1.00000000      1.00000000      1.00000000      1.00000000      1.00000000      1.00000000      1.00000000      1.00000000      1.00000000      1.00000000      1.00000000      1.00000000
      1.00000000      1.00000000      1.00000000      1.00000000</v>
    <i name="NUPDOWN">     -1.00000000</i>
    <i type="logical" name="LSORBIT"> F  </i>
    <v name="SAXIS">      0.00000000      0.00000000      1.00000000</v>
    <i type="logical" name="LSPIRAL"> F  </i>
    <v name="QSPIRAL">      0.00000000      0.00000000      0.00000000</v>
    <i type="logical" name="LZEROZ"> F  </i>
   </separator>
   <separator name="electronic exchange-correlation" >
    <i type="logical" name="LASPH"> F  </i>
    <i type="logical" name="LMETAGGA"> F  </i>
   </separator>
   <separator name="electronic convergence" >
    <i type="int" name="NELM">    60</i>
    <i type="int" name="NELMDL">    -5</i>
    <i type="int" name="NELMIN">     2</i>
    <i name="ENINI">    400.00000000</i>
    <separator name="electronic convergence detail" >
     <i type="logical" name="LDIAG"> T  </i>
     <i type="logical" name="LSUBROT"> F  </i>
     <i name="WEIMIN">      0.00000000</i>
     <i name="EBREAK">      0.00000000</i>
     <i name="DEPER">      0.30000000</i>
     <i type="int" name="NRMM">     4</i>
     <i name="TIME">      0.40000000</i>
    </separator>
   </separator>
   <separator name="electronic mixer" >
    <i name="AMIX">      0.40000000</i>
    <i name="BMIX">      1.00000000</i>
    <i name="AMIN">      0.10000000</i>
    <i name="AMIX_MAG">      1.60000000</i>
    <i name="BMIX_MAG">      1.00000000</i>
    <separator name="electronic mixer details" >
     <i type="int" name="IMIX">     4</i>
     <i type="logical" name="MIXFIRST"> F  </i>
     <i type="int" name="MAXMIX">   -45</i>
     <i name="WC">    100.00000000</i>
     <i type="int" name="INIMIX">     1</i>
     <i type="int" name="MIXPRE">     1</i>
     <i type="int" name="MREMOVE">     5</i>
    </separator>
   </separator>
   <separator name="electronic dipolcorrection" >
    <i type="logical" name="LDIPOL"> F  </i>
    <i type="logical" name="LMONO"> F  </i>
    <i type="int" name="IDIPOL">     0</i>
    <i name="EPSILON">      1.00000000</i>
    <v name="DIPOL">   -100.00000000   -100.00000000   -100.00000000</v>
    <i name="EFIELD">      0.00000000</i>
   </separator>
  </separator>
  <separator name="grids" >
   <i type="int" name="NGX">    48</i>
   <i type="int" name="NGY">    48</i>
   <i type="int" name="NGZ">    48</i>
   <i type="int" name="NGXF">    96</i>
   <i type="int" name="NGYF">    96</i>
   <i type="int" name="NGZF">    96</i>
   <i type="logical" name="ADDGRID"> F  </i>
  </separator>
  <separator name="ionic" >
   <i type="int" name="NSW">     0</i>
   <i type="int" name="IBRION">    -1</i>
   <i type="int" name="MDALGO">     0</i>
   <i type="int" name="ISIF">     3</i>
   <i name="PSTRESS">      0.00000000</i>
   <i name="EDIFFG">      0.00000010</i>
   <i type="int" name="NFREE">     0</i>
   <i name="POTIM">      0.50000000</i>
   <i name="SMASS">     -3.00000000</i>
   <i name="SCALEE">      1.00000000</i>
  </separator>
  <separator name="ionic md" >
   <i name="TEBEG">      0.00010000</i>
   <i name="TEEND">      0.00010000</i>
   <i type="int" name="NBLOCK">     1</i>
   <i type="int" name="KBLOCK">     1</i>
   <i type="int" name="NPACO">   256</i>
   <i name="APACO">     16.00000000</i>
  </separator>
  <separator name="symmetry" >
   <i type="int" name="ISYM">     0</i>
   <i name="SYMPREC">      0.00001000</i>
  </separator>
  <separator name="dos" >
   <i type="int" name="LORBIT">     0</i>
   <v name="RWIGS">     -1.00000000     -1.00000000</v>
   <i type="int" name="NEDOS">   301</i>
   <i name="EMIN">     10.00000000</i>
   <i name="EMAX">    -10.00000000</i>
   <i name="EFERMI">      0.00000000</i>
  </separator>
  <separator name="writing" >
   <i type="int" name="NWRITE">     2</i>
   <i type="logical" name="LWAVE"> F  </i>
   <i type="logical" name="LDOWNSAMPLE"> F  </i>
   <i type="logical" name="LCHARG"> F  </i>
   <i type="logical" name="LPARD"> F  </i>
   <i type="logical" name="LVTOT"> F  </i>
   <i type="logical" name="LVHAR"> F  </i>
   <i type="logical" name="LELF"> F  </i>
   <i type="logical" name="LOPTICS"> F  </i>
   <v name="STM">      0.00000000      0.00000000      0.00000000      0.00000000      0.00000000      0.00000000      0.00000000</v>
  </separator>
  <separator name="performance" >
   <i type="int" name="NPAR">     8</i>
   <i type="int" name="NSIM">     4</i>
   <i type="int" name="NBLK">    -1</i>
   <i type="logical" name="LPLANE"> T  </i>
   <i type="logical" name="LSCALAPACK"> T  </i>
   <i type="logical" name="LSCAAWARE"> F  </i>
   <i type="logical" name="LSCALU"> F  </i>
   <i type="logical" name="LASYNC"> F  </i>
   <i type="logical" name="LORBITALREAL"> F  </i>
  </separator>
  <separator name="miscellaneous" >
   <i type="int" name="IDIOT">     3</i>
   <i type="int" name="PHON_NSTRUCT">    -1</i>
   <i type="logical" name="LMUSIC"> F  </i>
   <v name="POMASS">     12.01100000     28.08500000</v>
   <v name="DARWINR">      0.00000000      0.00000000</v>
   <v name="DARWINV">      1.00000000      1.00000000</v>
   <i type="logical" name="LCORR"> T  </i>
  </separator>
  <i type="logical" name="GGA_COMPAT"> T  </i>
  <i type="logical" name="LBERRY"> F  </i>
  <i type="int" name="ICORELEVEL">     0</i>
  <i type="logical" name="LDAU"> F  </i>
  <i type="int" name="I_CONSTRAINED_M">     0</i>
  <separator name="electronic exchange-correlation" >
   <i type="string" name="GGA">PE</i>
   <i type="int" name="VOSKOWN">     0</i>
   <i type="logical" name="LHFCALC"> F  </i>
   <i type="string" name="PRECFOCK"></i>
   <i type="logical" name="LSYMGRAD"> F  </i>
   <i type="logical" name="LHFONE"> F  </i>
   <i type="logical" name="LRHFCALC"> F  </i>
   <i type="logical" name="LTHOMAS"> F  </i>
   <i type="logical" name="LMODELHF"> F  </i>
   <i type="logical" name="LFOCKACE"> F  </i>
   <i name="ENCUT4O">     -1.00000000</i>
   <i type="int" name="EXXOEP">     0</i>
   <i type="int" name="FOURORBIT">     0</i>
   <i name="AEXX">      0.00000000</i>
   <i name="HFALPHA">      0.00000000</i>
   <i name="MCALPHA">      0.00000000</i>
   <i name="ALDAX">      1.00000000</i>
   <i name="AGGAX">      1.00000000</i>
   <i name="ALDAC">      1.00000000</i>
   <i name="AGGAC">      1.00000000</i>
   <i type="int" name="NKREDX">     1</i>
   <i type="int" name="NKREDY">     1</i>
   <i type="int" name="NKREDZ">     1</i>
   <i type="logical" name="SHIFTRED"> F  </i>
   <i type="logical" name="ODDONLY"> F  </i>
   <i type="logical" name="EVENONLY"> F  </i>
   <i type="int" name="LMAXFOCK">     0</i>
   <i type="int" name="NMAXFOCKAE">     0</i>
   <i type="logical" name="LFOCKAEDFT"> F  </i>
   <i name="HFSCREEN">      0.00000000</i>
   <i name="HFSCREENC">      0.00000000</i>
   <i type="int" name="NBANDSGWLOW">     0</i>
  </separator>
  <separator name="vdW DFT" >
   <i type="logical" name="LUSE_VDW"> F  </i>
   <i name="Zab_VDW">     -0.84910000</i>
   <i name="PARAM1">      0.12340000</i>
   <i name="PARAM2">      1.00000000</i>
   <i name="PARAM3">      0.00000000</i>
  </separator>
  <separator name="model GW" >
   <i type="int" name="MODEL_GW">     0</i>
   <i name="MODEL_EPS0">      6.26613487</i>
   <i name="MODEL_ALPHA">      1.00000000</i>
  </separator>
  <separator name="linear response parameters" >
   <i type="logical" name="LEPSILON"> F  </i>
   <i type="logical" name="LRPA"> F  </i>
   <i type="logical" name="LNABLA"> F  </i>
   <i type="logical" name="LVEL"> F  </i>
   <i type="int" name="KINTER">     0</i>
   <i name="CSHIFT">      0.10000000</i>
   <i name="OMEGAMAX">     -1.00000000</i>
   <i name="DEG_THRESHOLD">      0.00200000</i>
   <i name="RTIME">     -0.10000000</i>
   <i name="WPLASMAI">      0.00000000</i>
   <v name="DFIELD">      0.00000000      0.00000000      0.00000000</v>
   <v name="WPLASMA">      0.00000000      0.00000000      0.00000000      0.00000000      0.00000000      0.00000000      0.00000000      0.00000000      0.00000000</v>
  </separator>
  <separator name="orbital magnetization" >
   <i type="logical" name="NUCIND"> F  </i>
   <v name="MAGPOS">      0.00000000      0.00000000      0.00000000</v>
   <i type="logical" name="LNICSALL"> T  </i>
   <i type="logical" name="ORBITALMAG"> F  </i>
   <i type="logical" name="LMAGBLOCH"> F  </i>
   <i type="logical" name="LCHIMAG"> F  </i>
   <i type="logical" name="LGAUGE"> T  </i>
   <i type="int" name="MAGATOM">     0</i>
   <v name="MAGDIPOL">      0.00000000      0.00000000      0.00000000</v>
   <v name="AVECCONST">      0.00000000      0.00000000      0.00000000</v>
  </separator>
  <separator name="response functions" >
   <i type="logical" name="LFINITE_TEMPERATURE"> F  </i>
   <i type="logical" name="LADDER"> F  </i>
   <i type="logical" name="LRPAFORCE"> F  </i>
   <i type="logical" name="LFXC"> F  </i>
   <i type="logical" name="LHARTREE"> T  </i>
   <i type="int" name="IBSE">     0</i>
   <v type="int" name="KPOINT">    -1     0     0     0</v>
   <i type="logical" name="LTCTC"> F  </i>
   <i type="logical" name="LTCTE"> F  </i>
   <i type="logical" name="LTETE"> F  </i>
   <i type="logical" name="LTRIPLET"> F  </i>
   <i type="logical" name="LFXCEPS"> F  </i>
   <i type="logical" name="LFXHEG"> F  </i>
   <i type="int" name="NATURALO">     2</i>
   <i type="logical" name="LHOLEGF"> F  </i>
   <i type="logical" name="L2ORDER"> F  </i>
   <i type="logical" name="LDMP1"> F  </i>
   <i type="logical" name="LMP2LT"> F  </i>
   <i type="logical" name="LSMP2LT"> F  </i>
   <i type="logical" name="LGWLF"> F  </i>
   <i name="ENCUTGW">     -2.00000000</i>
   <i name="ENCUTGWSOFT">     -2.00000000</i>
   <i name="ENCUTLF">     -1.00000000</i>
   <i type="logical" name="LESF_SPLINES"> F  </i>
   <i type="int" name="LMAXMP2">    -1</i>
   <i name="SCISSOR">      0.00000000</i>
   <i type="int" name="NOMEGA">     0</i>
   <i type="int" name="NOMEGAR">     0</i>
   <i type="int" name="NBANDSGW">    -1</i>
   <i type="int" name="NBANDSO">    -1</i>
   <i type="int" name="NBANDSV">    -1</i>
   <i type="int" name="NELM">    60</i>
   <i type="int" name="NELMHF">     1</i>
   <i type="int" name="DIM">     3</i>
   <i type="int" name="IESPILON">     4</i>
   <i type="int" name="ANTIRES">     0</i>
   <i name="OMEGAMAX">    -30.00000000</i>
   <i name="OMEGAMIN">    -30.00000000</i>
   <i name="OMEGATL">   -200.00000000</i>
   <i type="int" name="OMEGAGRID">     0</i>
   <i name="CSHIFT">     -0.10000000</i>
   <i type="logical" name="LSELFENERGY"> F  </i>
   <i type="logical" name="LSPECTRAL"> F  </i>
   <i type="logical" name="LSPECTRALGW"> F  </i>
   <i type="logical" name="LSINGLES"> F  </i>
   <i type="logical" name="LFERMIGW"> F  </i>
   <i type="logical" name="ODDONLYGW"> F  </i>
   <i type="logical" name="EVENONLYGW"> F  </i>
   <i type="int" name="NKREDLFX">     1</i>
   <i type="int" name="NKREDLFY">     1</i>
   <i type="int" name="NKREDLFZ">     1</i>
   <i type="int" name="MAXMEM">  2800</i>
   <i type="int" name="TELESCOPE">     0</i>
   <i type="int" name="NTAUPAR">    -1</i>
   <i type="int" name="NOMEGAPAR">    -1</i>
   <i name="DAMP_NEWTON">      0.80000001</i>
   <i name="LAMBDA">      1.00000000</i>
  </separator>
  <separator name="External order field" >
   <i name="OFIELD_KAPPA">      0.00000000</i>
   <v name="OFIELD_K">      0.00000000      0.00000000      0.00000000</v>
   <i name="OFIELD_Q6_NEAR">      0.00000000</i>
   <i name="OFIELD_Q6_FAR">      0.00000000</i>
   <i name="OFIELD_A">      0.00000000</i>
  </separator>
 </parameters>
 <atominfo>
  <atoms>      64 </atoms>
  <types>       2 </types>
  <array name="atoms" >
   <dimension dim="1">ion</dimension>
   <field type="string">element</field>
   <field type="int">atomtype</field>
   <set>
    <rc><c>C </c><c>   1</c></rc>
    <rc><c>C </c><c>   1</c></rc>
    <rc><c>C </c><c>   1</c></rc>
    <rc><c>C </c><c>   1</c></rc>
    <rc><c>C </c><c>   1</c></rc>
    <rc><c>C </c><c>   1</c></rc>
    <rc><c>C </c><c>   1</c></rc>
    <rc><c>C </c><c>   1</c></rc>
    <rc><c>C </c><c>   1</c></rc>
    <rc><c>C </c><c>   1</c></rc>
    <rc><c>C </c><c>   1</c></rc>
    <rc><c>C </c><c>   1</c></rc>
    <rc><c>C </c><c>   1</c></rc>
    <rc><c>C </c><c>   1</c></rc>
    <rc><c>C </c><c>   1</c></rc>
    <rc><c>C </c><c>   1</c></rc>
    <rc><c>C </c><c>   1</c></rc>
    <rc><c>C </c><c>   1</c></rc>
    <rc><c>C </c><c>   1</c></rc>
    <rc><c>C </c><c>   1</c></rc>
    <rc><c>C </c><c>   1</c></rc>
    <rc><c>C </c><c>   1</c></rc>
    <rc><c>C </c><c>   1</c></rc>
    <rc><c>C </c><c>   1</c></rc>
    <rc><c>C </c><c>   1</c></rc>
    <rc><c>C </c><c>   1</c></rc>
    <rc><c>C </c><c>   1</c></rc>
    <rc><c>C </c><c>   1</c></rc>
    <rc><c>C </c><c>   1</c></rc>
    <rc><c>C </c><c>   1</c></rc>
    <rc><c>C </c><c>   1</c></rc>
    <rc><c>C </c><c>   1</c></rc>
    <rc><c>Si</c><c>   2</c></rc>
    <rc><c>Si</c><c>   2</c></rc>
    <rc><c>Si</c><c>   2</c></rc>
    <rc><c>Si</c><c>   2</c></rc>
    <rc><c>Si</c><c>   2</c></rc>
    <rc><c>Si</c><c>   2</c></rc>
    <rc><c>Si</c><c>   2</c></rc>
    <rc><c>Si</c><c>   2</c></rc>
    <rc><c>Si</c><c>   2</c></rc>
    <rc><c>Si</c><c>   2</c></rc>
    <rc><c>Si</c><c>   2</c></rc>
    <rc><c>Si</c><c>   2</c></rc>
    <rc><c>Si</c><c>   2</c></rc>
    <rc><c>Si</c><c>   2</c></rc>
    <rc><c>Si</c><c>   2</c></rc>
    <rc><c>Si</c><c>   2</c></rc>
    <rc><c>Si</c><c>   2</c></rc>
    <rc><c>Si</c><c>   2</c></rc>
    <rc><c>Si</c><c>   2</c></rc>
    <rc><c>Si</c><c>   2</c></rc>
    <rc><c>Si</c><c>   2</c></rc>
    <rc><c>Si</c><c>   2</c></rc>
    <rc><c>Si</c><c>   2</c></rc>
    <rc><c>Si</c><c>   2</c></rc>
    <rc><c>Si</c><c>   2</c></rc>
    <rc><c>Si</c><c>   2</c></rc>
    <rc><c>Si</c><c>   2</c></rc>
    <rc><c>Si</c><c>   2</c></rc>
    <rc><c>Si</c><c>   2</c></rc>
    <rc><c>Si</c><c>   2</c></rc>
    <rc><c>Si</c><c>   2</c></rc>
    <rc><c>Si</c><c>   2</c></rc>
   </set>
  </array>
  <array name="atomtypes" >
   <dimension dim="1">type</dimension>
   <field type="int">atomspertype</field>
   <field type="string">element</field>
   <field>mass</field>
   <field>valence</field>
   <field type="string">pseudopotential</field>
   <set>
    <rc><c>  32</c><c>C </c><c>     12.01100000</c><c>      4.00000000</c><c>  PAW_PBE C 08Apr2002                   </c></rc>
    <rc><c>  32</c><c>Si</c><c>     28.08500000</c><c>      4.00000000</c><c>  PAW_PBE Si 05Jan2001                  </c></rc>
   </set>
  </array>
 </atominfo>
 <structure name="initialpos" >
  <crystal>
   <varray name="basis" >
    <v>       8.74331558       0.00000000       0.00000000 </v>
    <v>       0.00000000       8.74331558       0.00000000 </v>
    <v>       0.00000000       0.00000000       8.74331558 </v>
   </varray>
   <i name="volume">    668.38771987 </i>
   <varray name="rec_basis" >
    <v>       0.11437309       0.00000000       0.00000000 </v>
    <v>       0.00000000       0.11437309       0.00000000 </v>
    <v>       0.00000000       0.00000000       0.11437309 </v>
   </varray>
  </crystal>
  <varray name="positions" >
   <v>       0.12250585       0.12043040       0.12618255 </v>
   <v>       0.12506232       0.37040724       0.37634129 </v>
   <v>       0.37532397       0.12261216       0.37111722 </v>
   <v>       0.37832435       0.37087068       0.12694211 </v>
   <v>       0.12158772       0.12558939       0.62444628 </v>
   <v>       0.12747823       0.37438970       0.87481855 </v>
   <v>       0.37592487       0.12283201       0.88105824 </v>
   <v>       0.37399387       0.37434033       0.62721570 </v>
   <v>       0.13041806       0.62409985       0.12471481 </v>
   <v>       0.12137702       0.87303418       0.37706409 </v>
   <v>       0.37703057       0.62523470       0.37451988 </v>
   <v>       0.37333447       0.87497905       0.12193648 </v>
   <v>       0.13152018       0.62350201       0.62631704 </v>
   <v>       0.12557074       0.87492767       0.87527858 </v>
   <v>       0.37631502       0.62211952       0.87385125 </v>
   <v>       0.37620495       0.87628726       0.62743091 </v>
   <v>       0.62504585       0.12097082       0.12336347 </v>
   <v>       0.63026445       0.37411445       0.37284048 </v>
   <v>       0.87325143       0.12672878       0.37566745 </v>
   <v>       0.87742894       0.37116809       0.12144165 </v>
   <v>       0.62683128       0.11946512       0.62421544 </v>
   <v>       0.62624402       0.37730606       0.87450024 </v>
   <v>       0.87724016       0.12423655       0.87149244 </v>
   <v>       0.87639309       0.37408709       0.62562546 </v>
   <v>       0.62918798       0.62644636       0.12298144 </v>
   <v>       0.62638201       0.87499441       0.37806276 </v>
   <v>       0.87443382       0.62291451       0.37501753 </v>
   <v>       0.87562223       0.87364647       0.12221345 </v>
   <v>       0.62600979       0.62604307       0.62766482 </v>
   <v>       0.61981930       0.87600899       0.87594672 </v>
   <v>       0.87964183       0.62760760       0.87214670 </v>
   <v>       0.87470817       0.87382961       0.62601457 </v>
   <v>       0.99949986       0.99810121       0.99914354 </v>
   <v>       0.00090550       0.25171706       0.24889043 </v>
   <v>       0.24615275       0.99964787       0.24990571 </v>
   <v>       0.25247424       0.25063912       0.99605592 </v>
   <v>       0.00126323       0.00315517       0.50082511 </v>
   <v>       0.00074740       0.24895746       0.74978078 </v>
   <v>       0.25000252       0.99787420       0.75396933 </v>
   <v>       0.25054019       0.24896384       0.49883149 </v>
   <v>       0.00337870       0.50041898       0.99890390 </v>
   <v>       0.00343196       0.74866747       0.24780974 </v>
   <v>       0.25222786       0.49757187       0.24923303 </v>
   <v>       0.24513016       0.74429987       0.00073935 </v>
   <v>       0.00147443       0.50609182       0.50106242 </v>
   <v>       0.00014889       0.74961771       0.74708503 </v>
   <v>       0.24744885       0.49983692       0.75162531 </v>
   <v>       0.25124260       0.74807988       0.49920295 </v>
   <v>       0.50412076       0.00599456       0.99571243 </v>
   <v>       0.50182886       0.24984631       0.24726726 </v>
   <v>       0.75438539       0.00050566       0.25486039 </v>
   <v>       0.75016990       0.25296935       0.00057379 </v>
   <v>       0.50282733       0.00012548       0.50075645 </v>
   <v>       0.50104191       0.24685977       0.74883370 </v>
   <v>       0.74995513       0.00373573       0.75297875 </v>
   <v>       0.75044315       0.24904098       0.50209637 </v>
   <v>       0.50264506       0.50151421       0.00123549 </v>
   <v>       0.49886546       0.75351512       0.24955406 </v>
   <v>       0.74930369       0.49583551       0.24605573 </v>
   <v>       0.74876795       0.75262952       0.99892295 </v>
   <v>       0.49863269       0.49933539       0.49869028 </v>
   <v>       0.49953736       0.75142291       0.74741570 </v>
   <v>       0.75171130       0.50207717       0.75008128 </v>
   <v>       0.74927686       0.74973185       0.49701201 </v>
  </varray>
 </structure>
 <calculation>
  <scstep>
   <time name="dav">    4.84    4.84</time>
   <time name="total">    4.87    4.87</time>
   <energy>
    <i name="alphaZ">    354.85177120 </i>
    <i name="ewald">  -9081.35862898 </i>
    <i name="hartreedc">   -671.81829131 </i>
    <i name="XCdc">    145.84589797 </i>
    <i name="pawpsdc">   6292.66707184 </i>
    <i name="pawaedc">  -5747.90303932 </i>
    <i name="eentropy">      0.01243550 </i>
    <i name="bandstr">   1370.52960018 </i>
    <i name="atom">   8006.17504320 </i>
    <i name="e_fr_energy">    669.00186028 </i>
    <i name="e_wo_entrp">    668.98942478 </i>
    <i name="e_0_energy">    668.99771512 </i>
   </energy>
  </scstep>
  <scstep>
   <time name="dav">    5.64    5.64</time>
   <time name="total">    5.65    5.65</time>
   <energy>
    <i name="e_fr_energy">   -462.40890078 </i>
    <i name="e_wo_entrp">   -462.42353526 </i>
    <i name="e_0_energy">   -462.41377894 </i>
   </energy>
  </scstep>
  <scstep>
   <time name="dav">    5.58    5.58</time>
   <time name="total">    5.58    5.58</time>
   <energy>
    <i name="e_fr_energy">   -537.68125454 </i>
    <i name="e_wo_entrp">   -537.70087555 </i>
    <i name="e_0_energy">   -537.68779488 </i>
   </energy>
  </scstep>
  <scstep>
   <time name="dav">    5.56    5.56</time>
   <time name="total">    5.57    5.57</time>
   <energy>
    <i name="e_fr_energy">   -539.34997519 </i>
    <i name="e_wo_entrp">   -539.37031724 </i>
    <i name="e_0_energy">   -539.35675588 </i>
   </energy>
  </scstep>
  <scstep>
   <time name="dav">    5.43    5.43</time>
   <time name="total">    5.54    5.54</time>
   <energy>
    <i name="e_fr_energy">   -539.39569950 </i>
    <i name="e_wo_entrp">   -539.41600485 </i>
    <i name="e_0_energy">   -539.40246795 </i>
   </energy>
  </scstep>
  <scstep>
   <time name="dav">    5.24    5.24</time>
   <time name="total">    5.40    5.41</time>
   <energy>
    <i name="e_fr_energy">   -482.72097565 </i>
    <i name="e_wo_entrp">   -482.73202795 </i>
    <i name="e_0_energy">   -482.72465975 </i>
   </energy>
  </scstep>
  <scstep>
   <time name="dav">    5.67    5.67</time>
   <time name="total">    5.85    5.86</time>
   <energy>
    <i name="e_fr_energy">   -481.36363242 </i>
    <i name="e_wo_entrp">   -481.37366700 </i>
    <i name="e_0_energy">   -481.36697728 </i>
   </energy>
  </scstep>
  <scstep>
   <time name="dav">    5.28    5.28</time>
   <time name="total">    5.44    5.45</time>
   <energy>
    <i name="e_fr_energy">   -481.13560573 </i>
    <i name="e_wo_entrp">   -481.14580682 </i>
    <i name="e_0_energy">   -481.13900609 </i>
   </energy>
  </scstep>
  <scstep>
   <time name="dav">    5.35    5.35</time>
   <time name="total">    5.52    5.52</time>
   <energy>
    <i name="e_fr_energy">   -481.11933993 </i>
    <i name="e_wo_entrp">   -481.12944331 </i>
    <i name="e_0_energy">   -481.12270772 </i>
   </energy>
  </scstep>
  <scstep>
   <time name="dav">    5.53    5.53</time>
   <time name="total">    5.70    5.70</time>
   <energy>
    <i name="e_fr_energy">   -481.12241957 </i>
    <i name="e_wo_entrp">   -481.13252612 </i>
    <i name="e_0_energy">   -481.12578842 </i>
   </energy>
  </scstep>
  <scstep>
   <time name="dav">    5.13    5.13</time>
   <time name="total">    5.30    5.30</time>
   <energy>
    <i name="e_fr_energy">   -481.12340709 </i>
    <i name="e_wo_entrp">   -481.13351355 </i>
    <i name="e_0_energy">   -481.12677591 </i>
   </energy>
  </scstep>
  <scstep>
   <time name="dav">    5.96    5.96</time>
   <time name="total">    6.14    6.14</time>
   <energy>
    <i name="e_fr_energy">   -481.12343809 </i>
    <i name="e_wo_entrp">   -481.13354077 </i>
    <i name="e_0_energy">   -481.12680565 </i>
   </energy>
  </scstep>
  <scstep>
   <time name="dav">    5.10    5.10</time>
   <time name="total">    5.30    5.30</time>
   <energy>
    <i name="e_fr_energy">   -481.12344976 </i>
    <i name="e_wo_entrp">   -481.13355419 </i>
    <i name="e_0_energy">   -481.12681790 </i>
   </energy>
  </scstep>
  <scstep>
   <time name="dav">    5.30    5.30</time>
   <time name="total">    5.48    5.48</time>
   <energy>
    <i name="e_fr_energy">   -481.12345584 </i>
    <i name="e_wo_entrp">   -481.13356006 </i>
    <i name="e_0_energy">   -481.12682391 </i>
   </energy>
  </scstep>
  <scstep>
   <time name="dav">    5.53    5.53</time>
   <time name="total">    5.71    5.71</time>
   <energy>
    <i name="e_fr_energy">   -481.12345787 </i>
    <i name="e_wo_entrp">   -481.13356195 </i>
    <i name="e_0_energy">   -481.12682590 </i>
   </energy>
  </scstep>
  <scstep>
   <time name="dav">    5.60    5.60</time>
   <time name="total">    5.78    5.78</time>
   <energy>
    <i name="e_fr_energy">   -481.12345747 </i>
    <i name="e_wo_entrp">   -481.13356167 </i>
    <i name="e_0_energy">   -481.12682554 </i>
   </energy>
  </scstep>
  <scstep>
   <time name="dav">    5.17    5.17</time>
   <time name="total">    5.37    5.38</time>
   <energy>
    <i name="e_fr_energy">   -481.12345776 </i>
    <i name="e_wo_entrp">   -481.13356191 </i>
    <i name="e_0_energy">   -481.12682581 </i>
   </energy>
  </scstep>
  <scstep>
   <time name="dav">    3.35    3.35</time>
   <time name="total">    3.53    3.53</time>
   <energy>
    <i name="e_fr_energy">   -481.12345778 </i>
    <i name="e_wo_entrp">   -481.13356192 </i>
    <i name="e_0_energy">   -481.12682583 </i>
   </energy>
  </scstep>
  <scstep>
   <time name="dav">    3.33    3.33</time>
   <time name="total">    3.50    3.50</time>
   <energy>
    <i name="e_fr_energy">   -481.12345775 </i>
    <i name="e_wo_entrp">   -481.13356188 </i>
    <i name="e_0_energy">   -481.12682579 </i>
   </energy>
  </scstep>
  <scstep>
   <time name="dav">    3.33    3.33</time>
   <time name="total">    3.98    3.99</time>
   <energy>
    <i name="alphaZ">    354.85177120 </i>
    <i name="ewald">  -9081.35862898 </i>
    <i name="hartreedc">  -1024.57392931 </i>
    <i name="XCdc">    179.28816657 </i>
    <i name="pawpsdc">  33053.32479920 </i>
    <i name="pawaedc"> -32514.26391072 </i>
    <i name="eentropy">      0.01010413 </i>
    <i name="bandstr">    545.42312693 </i>
    <i name="atom">   8006.17504320 </i>
    <i name="e_fr_energy">   -481.12345776 </i>
    <i name="e_wo_entrp">   -481.13356189 </i>
    <i name="e_0_energy">   -481.12682580 </i>
   </energy>
  </scstep>
  <structure>
   <crystal>
    <varray name="basis" >
     <v>       8.74331558       0.00000000       0.00000000 </v>
     <v>       0.00000000       8.74331558       0.00000000 </v>
     <v>       0.00000000       0.00000000       8.74331558 </v>
    </varray>
    <i name="volume">    668.38771987 </i>
    <varray name="rec_basis" >
     <v>       0.11437309       0.00000000       0.00000000 </v>
     <v>       0.00000000       0.11437309       0.00000000 </v>
     <v>       0.00000000       0.00000000       0.11437309 </v>
    </varray>
   </crystal>
   <varray name="positions" >
    <v>       0.12250585       0.12043040       0.12618255 </v>
    <v>       0.12506232       0.37040724       0.37634129 </v>
    <v>       0.37532397       0.12261216       0.37111722 </v>
    <v>       0.37832435       0.37087068       0.12694211 </v>
    <v>       0.12158772       0.12558939       0.62444628 </v>
    <v>       0.12747823       0.37438970       0.87481855 </v>
    <v>       0.37592487       0.12283201       0.88105824 </v>
    <v>       0.37399387       0.37434033       0.62721570 </v>
    <v>       0.13041806       0.62409985       0.12471481 </v>
    <v>       0.12137702       0.87303418       0.37706409 </v>
    <v>       0.37703057       0.62523470       0.37451988 </v>
    <v>       0.37333447       0.87497905       0.12193648 </v>
    <v>       0.13152018       0.62350201       0.62631704 </v>
    <v>       0.12557074       0.87492767       0.87527858 </v>
    <v>       0.37631502       0.62211952       0.87385125 </v>
    <v>       0.37620495       0.87628726       0.62743091 </v>
    <v>       0.62504585       0.12097082       0.12336347 </v>
    <v>       0.63026445       0.37411445       0.37284048 </v>
    <v>       0.87325143       0.12672878       0.37566745 </v>
    <v>       0.87742894       0.37116809       0.12144165 </v>
    <v>       0.62683128       0.11946512       0.62421544 </v>
    <v>       0.62624402       0.37730606       0.87450024 </v>
    <v>       0.87724016       0.12423655       0.87149244 </v>
    <v>       0.87639309       0.37408709       0.62562546 </v>
    <v>       0.62918798       0.62644636       0.12298144 </v>
    <v>       0.62638201       0.87499441       0.37806276 </v>
    <v>       0.87443382       0.62291451       0.37501753 </v>
    <v>       0.87562223       0.87364647       0.12221345 </v>
    <v>       0.62600979       0.62604307       0.62766482 </v>
    <v>       0.61981930       0.87600899       0.87594672 </v>
    <v>       0.87964183       0.62760760       0.87214670 </v>
    <v>       0.87470817       0.87382961       0.62601457 </v>
    <v>       0.99949986       0.99810121       0.99914354 </v>
    <v>       0.00090550       0.25171706       0.24889043 </v>
    <v>       0.24615275       0.99964787       0.24990571 </v>
    <v>       0.25247424       0.25063912       0.99605592 </v>
    <v>       0.00126323       0.00315517       0.50082511 </v>
    <v>       0.00074740       0.24895746       0.74978078 </v>
    <v>       0.25000252       0.99787420       0.75396933 </v>
    <v>       0.25054019       0.24896384       0.49883149 </v>
    <v>       0.00337870       0.50041898       0.99890390 </v>
    <v>       0.00343196       0.74866747       0.24780974 </v>
    <v>       0.25222786       0.49757187       0.24923303 </v>
    <v>       0.24513016       0.74429987       0.00073935 </v>
    <v>       0.00147443       0.50609182       0.50106242 </v>
    <v>       0.00014889       0.74961771       0.74708503 </v>
    <v>       0.24744885       0.49983692       0.75162531 </v>
    <v>       0.25124260       0.74807988       0.49920295 </v>
    <v>       0.50412076       0.00599456       0.99571243 </v>
    <v>       0.50182886       0.24984631       0.24726726 </v>
    <v>       0.75438539       0.00050566       0.25486039 </v>
    <v>       0.75016990       0.25296935       0.00057379 </v>
    <v>       0.50282733       0.00012548       0.50075645 </v>
    <v>       0.50104191       0.24685977       0.74883370 </v>
    <v>       0.74995513       0.00373573       0.75297875 </v>
    <v>       0.75044315       0.24904098       0.50209637 </v>
    <v>       0.50264506       0.50151421       0.00123549 </v>
    <v>       0.49886546       0.75351512       0.24955406 </v>
    <v>       0.74930369       0.49583551       0.24605573 </v>
    <v>       0.74876795       0.75262952       0.99892295 </v>
    <v>       0.49863269       0.49933539       0.49869028 </v>
    <v>       0.49953736       0.75142291       0.74741570 </v>
    <v>       0.75171130       0.50207717       0.75008128 </v>
    <v>       0.74927686       0.74973185       0.49701201 </v>
   </varray>
  </structure>
  <varray name="forces" >
   <v>       0.20293440       1.04256698      -0.53655038 </v>
   <v>       0.02110759       1.24587549      -0.32822689 </v>
   <v>       0.18558268       0.28820622       0.70070302 </v>
   <v>      -0.36003889       0.86949634      -0.69035910 </v>
   <v>       1.21047019      -0.15194677       0.38193071 </v>
   <v>      -0.41637829      -0.10253227      -0.00133622 </v>
   <v>      -0.16023146       0.70891483      -1.67115807 </v>
   <v>       0.15448569      -0.26039530      -0.49864990 </v>
   <v>      -1.05947969      -0.75373969       0.47010528 </v>
   <v>       0.61707263       0.18450921      -0.15097846 </v>
   <v>      -0.22712975      -0.12050100      -0.18673774 </v>
   <v>       0.06818213       0.10671287       0.19858029 </v>
   <v>      -0.97871962       0.44816346      -0.30046481 </v>
   <v>      -0.32985482      -0.54581469      -0.01026290 </v>
   <v>      -0.35338212       0.35445869       0.22891556 </v>
   <v>      -0.35061385      -0.02519746      -0.67616727 </v>
   <v>       0.84753637       0.88317919       0.47158374 </v>
   <v>      -1.06511134      -0.19528782       0.38336230 </v>
   <v>       0.69075883       0.06809440       0.08063950 </v>
   <v>       0.04770887       0.95349968       0.32433659 </v>
   <v>      -0.21935313       1.21220182       0.24371950 </v>
   <v>      -0.03821924      -0.42725808       0.00399813 </v>
   <v>      -0.31606414       0.40519995       0.91198836 </v>
   <v>      -0.03696105       0.47733050       0.01705137 </v>
   <v>      -0.59260223      -0.14332414       0.45826514 </v>
   <v>      -0.16470305       0.07620001      -0.68580332 </v>
   <v>       0.21399738       0.23977349      -0.64672311 </v>
   <v>       0.03875285       0.10923308       0.64192272 </v>
   <v>      -0.17662751      -0.18851384      -0.78661070 </v>
   <v>       1.02585530       0.06902590      -0.46403606 </v>
   <v>      -0.54612963      -0.37837025       0.61839297 </v>
   <v>      -0.07787993       0.39264821      -0.36291885 </v>
   <v>       0.02878328       0.20239591      -0.08456552 </v>
   <v>      -0.10167663      -0.72996572       0.14774048 </v>
   <v>       0.68371020      -0.56147489      -0.17592406 </v>
   <v>      -0.39444862      -0.43865283       1.28678390 </v>
   <v>      -0.73992340      -0.78061785       0.02003910 </v>
   <v>      -0.07689658       0.33137668      -0.07699187 </v>
   <v>      -0.02122052       0.38934537      -0.51816708 </v>
   <v>       0.18123829      -0.28547113       0.26597826 </v>
   <v>      -0.39769478      -0.08493403      -0.02093010 </v>
   <v>      -0.79232615      -0.03654518       0.30343226 </v>
   <v>       0.06179303      -0.23699956       0.41230067 </v>
   <v>       1.72797883       1.27170763      -0.74601031 </v>
   <v>      -0.04035813      -1.38100771      -0.11419137 </v>
   <v>       0.45394038       0.46427477       0.12345966 </v>
   <v>       1.15423805      -0.27819167      -0.07581070 </v>
   <v>       0.14983093       0.60245149       0.23449460 </v>
   <v>      -0.90837334      -1.67794828       1.31798745 </v>
   <v>       0.19294597      -0.70664176       0.56630597 </v>
   <v>      -0.65681008      -0.37708969      -0.99413346 </v>
   <v>       0.05955080      -0.95729650      -0.58048103 </v>
   <v>      -0.77994482      -0.24138216      -0.33790024 </v>
   <v>      -0.09476273       0.46112540       0.29119443 </v>
   <v>       0.18924735      -1.38348343      -0.41819845 </v>
   <v>       0.15786742       0.26068819      -0.18548367 </v>
   <v>      -0.33559995      -0.19194562      -0.29607206 </v>
   <v>       0.32210457      -0.13357103      -0.37491832 </v>
   <v>       0.74165069       0.68452098       0.30143641 </v>
   <v>       0.33355893      -0.18351607      -0.32369122 </v>
   <v>       0.66630320      -0.07527162       0.45718234 </v>
   <v>      -0.03315815      -0.38888847       0.68619114 </v>
   <v>       0.07764545      -0.24418400      -0.05612938 </v>
   <v>       0.33584134      -0.13521625       0.82656082 </v>
  </varray>
  <varray name="stress" >
   <v>       3.41930573      -1.91933666       7.11137324 </v>
   <v>      -1.91933667       3.42262444      -2.65125818 </v>
   <v>       7.11137330      -2.65125826       3.44844100 </v>
  </varray>
  <energy>
   <i name="e_fr_energy">   -481.12345776 </i>
   <i name="e_wo_entrp">   -481.13356189 </i>
   <i name="e_0_energy">   -481.12682580 </i>
  </energy>
  <time name="totalsc">  113.14  113.21</time>
  <eigenvalues>
   <array>
    <dimension dim="1">band</dimension>
    <dimension dim="2">kpoint</dimension>
    <dimension dim="3">spin</dimension>
    <field>eigene</field>
    <field>occ</field>
    <set>
     <set comment="spin 1">
      <set comment="kpoint 1">
       <r>   -7.3417    1.0000 </r>
       <r>   -5.8738    1.0000 </r>
       <r>   -5.7851    1.0000 </r>
       <r>   -5.7763    1.0000 </r>
       <r>   -5.7300    1.0000 </r>
       <r>   -5.7097    1.0000 </r>
       <r>   -5.6798    1.0000 </r>
       <r>   -4.5538    1.0000 </r>
       <r>   -4.4403    1.0000 </r>
       <r>   -4.4179    1.0000 </r>
       <r>   -4.3857    1.0000 </r>
       <r>   -4.3642    1.0000 </r>
       <r>   -4.3533    1.0000 </r>
       <r>   -4.3307    1.0000 </r>
       <r>   -4.3048    1.0000 </r>
       <r>   -4.2834    1.0000 </r>
       <r>   -4.2796    1.0000 </r>
       <r>   -4.2345    1.0000 </r>
       <r>   -4.1423    1.0000 </r>
       <r>   -3.8632    1.0000 </r>
       <r>   -3.8234    1.0000 </r>
       <r>   -3.8026    1.0000 </r>
       <r>   -3.7059    1.0000 </r>
       <r>   -2.4101    1.0000 </r>
       <r>   -2.3703    1.0000 </r>
       <r>   -2.3276    1.0000 </r>
       <r>   -2.2552    1.0000 </r>
       <r>   -2.1689    1.0000 </r>
       <r>   -2.1301    1.0000 </r>
       <r>   -2.1006    1.0000 </r>
       <r>   -2.0885    1.0000 </r>
       <r>   -2.0097    1.0000 </r>
       <r>   -0.5661    1.0000 </r>
       <r>   -0.4991    1.0000 </r>
       <r>   -0.4619    1.0000 </r>
       <r>   -0.4337    1.0000 </r>
       <r>    0.2242    1.0000 </r>
       <r>    0.2324    1.0000 </r>
       <r>    0.2347    1.0000 </r>
       <r>    0.9471    1.0000 </r>
       <r>    0.9730    1.0000 </r>
       <r>    0.9799    1.0000 </r>
       <r>    0.9855    1.0000 </r>
       <r>    1.0058    1.0000 </r>
       <r>    1.0331    1.0000 </r>
       <r>    1.9405    1.0000 </r>
       <r>    1.9805    1.0000 </r>
       <r>    2.0046    1.0000 </r>
       <r>    2.0193    1.0000 </r>
       <r>    2.0360    1.0000 </r>
       <r>    2.0718    1.0000 </r>
       <r>    2.0913    1.0000 </r>
       <r>    2.1199    1.0000 </r>
       <r>    2.1235    1.0000 </r>
       <r>    2.1565    1.0000 </r>
       <r>    2.1595    1.0000 </r>
       <r>    2.1859    1.0000 </r>
       <r>    2.9698    1.0000 </r>
       <r>    3.0195    1.0000 </r>
       <r>    3.0250    1.0000 </r>
       <r>    3.0530    1.0000 </r>
       <r>    3.0761    1.0000 </r>
       <r>    3.1189    1.0000 </r>
       <r>    3.3021    1.0000 </r>
       <r>    3.3329    1.0000 </r>
       <r>    3.3437    1.0000 </r>
       <r>    3.3554    1.0000 </r>
       <r>    3.3598    1.0000 </r>
       <r>    3.3838    1.0000 </r>
       <r>    3.5826    1.0000 </r>
       <r>    3.6126    1.0000 </r>
       <r>    3.6269    1.0000 </r>
       <r>    3.6570    1.0000 </r>
       <r>    3.6609    1.0000 </r>
       <r>    3.6704    1.0000 </r>
       <r>    3.7055    1.0000 </r>
       <r>    3.7235    1.0000 </r>
       <r>    3.7429    1.0000 </r>
       <r>    3.7583    1.0000 </r>
       <r>    3.7719    1.0000 </r>
       <r>    3.7963    1.0000 </r>
       <r>    4.5688    1.0000 </r>
       <r>    4.5973    1.0000 </r>
       <r>    4.6364    1.0000 </r>
       <r>    4.6575    1.0000 </r>
       <r>    4.6935    1.0000 </r>
       <r>    4.7078    1.0000 </r>
       <r>    4.8148    1.0000 </r>
       <r>    4.8338    1.0000 </r>
       <r>    4.8379    1.0000 </r>
       <r>    4.8410    1.0000 </r>
       <r>    4.8631    1.0000 </r>
       <r>    4.8861    1.0000 </r>
       <r>    5.9430    1.0000 </r>
       <r>    5.9690    1.0000 </r>
       <r>    6.0087    1.0000 </r>
       <r>    6.0313    1.0000 </r>
       <r>    6.0464    1.0000 </r>
       <r>    6.0694    1.0000 </r>
       <r>    6.0960    1.0000 </r>
       <r>    6.1038    1.0000 </r>
       <r>    6.1264    1.0000 </r>
       <r>    6.1493    1.0000 </r>
       <r>    6.1534    1.0000 </r>
       <r>    6.1971    1.0000 </r>
       <r>    6.6422    1.0000 </r>
       <r>    6.7399    1.0000 </r>
       <r>    6.7478    1.0000 </r>
       <r>    6.7607    1.0000 </r>
       <r>    6.7925    1.0000 </r>
       <r>    6.8031    1.0000 </r>
       <r>    6.8337    1.0000 </r>
       <r>    6.8449    1.0000 </r>
       <r>    6.8676    1.0000 </r>
       <r>    6.8714    1.0000 </r>
       <r>    6.8977    1.0000 </r>
       <r>    6.9132    1.0000 </r>
       <r>    6.9259    1.0000 </r>
       <r>    6.9469    1.0000 </r>
       <r>    6.9524    1.0000 </r>
       <r>    6.9892    1.0000 </r>
       <r>    6.9957    1.0000 </r>
       <r>    7.0083    1.0000 </r>
       <r>    7.0595    1.0000 </r>
       <r>    7.1037    1.0000 </r>
       <r>    7.9552    1.0315 </r>
       <r>    8.0374    0.9479 </r>
       <r>    8.0872    0.8221 </r>
       <r>    9.2807   -0.0000 </r>
       <r>    9.3709   -0.0000 </r>
       <r>    9.4266   -0.0000 </r>
       <r>   11.9314   -0.0000 </r>
       <r>   11.9519   -0.0000 </r>
       <r>   11.9886   -0.0000 </r>
       <r>   12.0250   -0.0000 </r>
       <r>   12.0750   -0.0000 </r>
       <r>   12.0948   -0.0000 </r>
       <r>   12.2613   -0.0000 </r>
       <r>   12.2690   -0.0000 </r>
       <r>   12.2774   -0.0000 </r>
       <r>   13.0551   -0.0000 </r>
       <r>   13.1177   -0.0000 </r>
       <r>   13.1411   -0.0000 </r>
       <r>   13.1653   -0.0000 </r>
       <r>   13.2250   -0.0000 </r>
       <r>   13.2540   -0.0000 </r>
       <r>   13.3074   -0.0000 </r>
       <r>   13.3100   -0.0000 </r>
       <r>   13.3306   -0.0000 </r>
       <r>   13.3558   -0.0000 </r>
       <r>   13.3605   -0.0000 </r>
       <r>   13.4116   -0.0000 </r>
       <r>   13.4382   -0.0000 </r>
       <r>   13.4540   -0.0000 </r>
       <r>   13.4704   -0.0000 </r>
       <r>   13.4817   -0.0000 </r>
       <r>   13.5007   -0.0000 </r>
       <r>   13.5363   -0.0000 </r>
       <r>   13.5447   -0.0000 </r>
       <r>   13.5634   -0.0000 </r>
       <r>   13.5746   -0.0000 </r>
       <r>   13.6648    0.0000 </r>
       <r>   14.1033    0.0000 </r>
       <r>   14.2231    0.0000 </r>
       <r>   14.2370    0.0000 </r>
       <r>   14.2710    0.0000 </r>
       <r>   14.3093    0.0000 </r>
       <r>   14.3483    0.0000 </r>
      </set>
      <set comment="kpoint 2">
       <r>   -7.1629    1.0000 </r>
       <r>   -6.6305    1.0000 </r>
       <r>   -5.6499    1.0000 </r>
       <r>   -5.6221    1.0000 </r>
       <r>   -5.5840    1.0000 </r>
       <r>   -5.5346    1.0000 </r>
       <r>   -5.1637    1.0000 </r>
       <r>   -5.1367    1.0000 </r>
       <r>   -5.0896    1.0000 </r>
       <r>   -5.0397    1.0000 </r>
       <r>   -4.5983    1.0000 </r>
       <r>   -4.2925    1.0000 </r>
       <r>   -4.2476    1.0000 </r>
       <r>   -4.2286    1.0000 </r>
       <r>   -4.1562    1.0000 </r>
       <r>   -4.0236    1.0000 </r>
       <r>   -3.9866    1.0000 </r>
       <r>   -3.9669    1.0000 </r>
       <r>   -3.8909    1.0000 </r>
       <r>   -3.4586    1.0000 </r>
       <r>   -3.4144    1.0000 </r>
       <r>   -3.3750    1.0000 </r>
       <r>   -3.3205    1.0000 </r>
       <r>   -3.2142    1.0000 </r>
       <r>   -2.5992    1.0000 </r>
       <r>   -2.5505    1.0000 </r>
       <r>   -2.4901    1.0000 </r>
       <r>   -2.4448    1.0000 </r>
       <r>   -2.3410    1.0000 </r>
       <r>   -2.2461    1.0000 </r>
       <r>   -2.2184    1.0000 </r>
       <r>   -2.1273    1.0000 </r>
       <r>   -0.0995    1.0000 </r>
       <r>   -0.0305    1.0000 </r>
       <r>   -0.0084    1.0000 </r>
       <r>    0.0233    1.0000 </r>
       <r>    0.3653    1.0000 </r>
       <r>    0.3773    1.0000 </r>
       <r>    0.7115    1.0000 </r>
       <r>    0.7293    1.0000 </r>
       <r>    0.9893    1.0000 </r>
       <r>    1.0134    1.0000 </r>
       <r>    1.0374    1.0000 </r>
       <r>    1.0701    1.0000 </r>
       <r>    1.0828    1.0000 </r>
       <r>    1.1174    1.0000 </r>
       <r>    1.1470    1.0000 </r>
       <r>    1.1560    1.0000 </r>
       <r>    1.2425    1.0000 </r>
       <r>    1.3730    1.0000 </r>
       <r>    1.3822    1.0000 </r>
       <r>    1.4279    1.0000 </r>
       <r>    1.4753    1.0000 </r>
       <r>    2.6697    1.0000 </r>
       <r>    2.7019    1.0000 </r>
       <r>    2.7147    1.0000 </r>
       <r>    2.7278    1.0000 </r>
       <r>    2.8862    1.0000 </r>
       <r>    2.9264    1.0000 </r>
       <r>    2.9481    1.0000 </r>
       <r>    2.9712    1.0000 </r>
       <r>    2.9894    1.0000 </r>
       <r>    3.0062    1.0000 </r>
       <r>    3.0224    1.0000 </r>
       <r>    3.0536    1.0000 </r>
       <r>    3.0855    1.0000 </r>
       <r>    3.5193    1.0000 </r>
       <r>    3.5254    1.0000 </r>
       <r>    3.6414    1.0000 </r>
       <r>    3.6568    1.0000 </r>
       <r>    3.9772    1.0000 </r>
       <r>    4.0014    1.0000 </r>
       <r>    4.0391    1.0000 </r>
       <r>    4.0886    1.0000 </r>
       <r>    4.3281    1.0000 </r>
       <r>    4.3489    1.0000 </r>
       <r>    4.3726    1.0000 </r>
       <r>    4.3985    1.0000 </r>
       <r>    4.4095    1.0000 </r>
       <r>    4.4393    1.0000 </r>
       <r>    4.4692    1.0000 </r>
       <r>    4.4971    1.0000 </r>
       <r>    4.6115    1.0000 </r>
       <r>    4.6527    1.0000 </r>
       <r>    4.6622    1.0000 </r>
       <r>    4.6797    1.0000 </r>
       <r>    4.7596    1.0000 </r>
       <r>    4.8168    1.0000 </r>
       <r>    4.8474    1.0000 </r>
       <r>    4.8811    1.0000 </r>
       <r>    4.9877    1.0000 </r>
       <r>    4.9966    1.0000 </r>
       <r>    5.3853    1.0000 </r>
       <r>    5.4073    1.0000 </r>
       <r>    5.5878    1.0000 </r>
       <r>    5.5997    1.0000 </r>
       <r>    5.6210    1.0000 </r>
       <r>    5.6505    1.0000 </r>
       <r>    5.8425    1.0000 </r>
       <r>    5.8720    1.0000 </r>
       <r>    5.9108    1.0000 </r>
       <r>    5.9519    1.0000 </r>
       <r>    6.1607    1.0000 </r>
       <r>    6.2212    1.0000 </r>
       <r>    6.2853    1.0000 </r>
       <r>    6.2974    1.0000 </r>
       <r>    6.3186    1.0000 </r>
       <r>    6.4272    1.0000 </r>
       <r>    6.4659    1.0000 </r>
       <r>    6.5239    1.0000 </r>
       <r>    6.5597    1.0000 </r>
       <r>    6.7400    1.0000 </r>
       <r>    6.7816    1.0000 </r>
       <r>    6.8256    1.0000 </r>
       <r>    6.8371    1.0000 </r>
       <r>    6.8627    1.0000 </r>
       <r>    6.8736    1.0000 </r>
       <r>    6.8890    1.0000 </r>
       <r>    6.9223    1.0000 </r>
       <r>    6.9400    1.0000 </r>
       <r>    6.9585    1.0000 </r>
       <r>    6.9830    1.0000 </r>
       <r>    6.9934    1.0000 </r>
       <r>    7.0219    1.0000 </r>
       <r>    7.0807    1.0000 </r>
       <r>    7.4618    1.0000 </r>
       <r>    7.6826    1.0015 </r>
       <r>    7.7139    1.0029 </r>
       <r>    9.6753   -0.0000 </r>
       <r>   10.1540   -0.0000 </r>
       <r>   10.2542   -0.0000 </r>
       <r>   10.6193   -0.0000 </r>
       <r>   11.9187   -0.0000 </r>
       <r>   12.0058   -0.0000 </r>
       <r>   12.4745   -0.0000 </r>
       <r>   12.6002   -0.0000 </r>
       <r>   12.6410   -0.0000 </r>
       <r>   12.6545   -0.0000 </r>
       <r>   12.6901   -0.0000 </r>
       <r>   12.9186   -0.0000 </r>
       <r>   12.9362   -0.0000 </r>
       <r>   12.9765   -0.0000 </r>
       <r>   12.9825   -0.0000 </r>
       <r>   13.0160   -0.0000 </r>
       <r>   13.0548   -0.0000 </r>
       <r>   13.0689   -0.0000 </r>
       <r>   13.0917   -0.0000 </r>
       <r>   13.1286   -0.0000 </r>
       <r>   13.1850   -0.0000 </r>
       <r>   13.1938   -0.0000 </r>
       <r>   13.4904   -0.0000 </r>
       <r>   13.6003   -0.0000 </r>
       <r>   13.6277   -0.0000 </r>
       <r>   13.6396    0.0000 </r>
       <r>   13.6700    0.0000 </r>
       <r>   13.6731    0.0000 </r>
       <r>   13.6900    0.0000 </r>
       <r>   13.6976    0.0000 </r>
       <r>   13.7175    0.0000 </r>
       <r>   13.9250    0.0000 </r>
       <r>   13.9670    0.0000 </r>
       <r>   13.9989    0.0000 </r>
       <r>   14.0165    0.0000 </r>
       <r>   14.4792    0.0000 </r>
       <r>   14.7940    0.0000 </r>
       <r>   14.8150    0.0000 </r>
       <r>   14.8346    0.0000 </r>
       <r>   14.9127    0.0000 </r>
      </set>
      <set comment="kpoint 3">
       <r>   -7.1630    1.0000 </r>
       <r>   -6.6307    1.0000 </r>
       <r>   -5.6452    1.0000 </r>
       <r>   -5.6050    1.0000 </r>
       <r>   -5.5932    1.0000 </r>
       <r>   -5.5521    1.0000 </r>
       <r>   -5.1607    1.0000 </r>
       <r>   -5.1087    1.0000 </r>
       <r>   -5.0995    1.0000 </r>
       <r>   -5.0511    1.0000 </r>
       <r>   -4.5966    1.0000 </r>
       <r>   -4.2958    1.0000 </r>
       <r>   -4.2581    1.0000 </r>
       <r>   -4.2219    1.0000 </r>
       <r>   -4.1867    1.0000 </r>
       <r>   -4.0208    1.0000 </r>
       <r>   -3.9886    1.0000 </r>
       <r>   -3.9598    1.0000 </r>
       <r>   -3.8590    1.0000 </r>
       <r>   -3.4563    1.0000 </r>
       <r>   -3.4106    1.0000 </r>
       <r>   -3.3932    1.0000 </r>
       <r>   -3.3267    1.0000 </r>
       <r>   -3.2064    1.0000 </r>
       <r>   -2.5884    1.0000 </r>
       <r>   -2.5379    1.0000 </r>
       <r>   -2.5109    1.0000 </r>
       <r>   -2.4245    1.0000 </r>
       <r>   -2.3269    1.0000 </r>
       <r>   -2.2913    1.0000 </r>
       <r>   -2.2054    1.0000 </r>
       <r>   -2.1308    1.0000 </r>
       <r>   -0.1011    1.0000 </r>
       <r>   -0.0389    1.0000 </r>
       <r>    0.0031    1.0000 </r>
       <r>    0.0248    1.0000 </r>
       <r>    0.3604    1.0000 </r>
       <r>    0.3736    1.0000 </r>
       <r>    0.7257    1.0000 </r>
       <r>    0.7289    1.0000 </r>
       <r>    0.9785    1.0000 </r>
       <r>    1.0275    1.0000 </r>
       <r>    1.0387    1.0000 </r>
       <r>    1.0632    1.0000 </r>
       <r>    1.0903    1.0000 </r>
       <r>    1.0982    1.0000 </r>
       <r>    1.1399    1.0000 </r>
       <r>    1.1634    1.0000 </r>
       <r>    1.2413    1.0000 </r>
       <r>    1.3660    1.0000 </r>
       <r>    1.4031    1.0000 </r>
       <r>    1.4271    1.0000 </r>
       <r>    1.4721    1.0000 </r>
       <r>    2.6799    1.0000 </r>
       <r>    2.6932    1.0000 </r>
       <r>    2.7072    1.0000 </r>
       <r>    2.7328    1.0000 </r>
       <r>    2.9071    1.0000 </r>
       <r>    2.9226    1.0000 </r>
       <r>    2.9316    1.0000 </r>
       <r>    2.9577    1.0000 </r>
       <r>    2.9772    1.0000 </r>
       <r>    3.0033    1.0000 </r>
       <r>    3.0294    1.0000 </r>
       <r>    3.0749    1.0000 </r>
       <r>    3.0896    1.0000 </r>
       <r>    3.5166    1.0000 </r>
       <r>    3.5255    1.0000 </r>
       <r>    3.6431    1.0000 </r>
       <r>    3.6481    1.0000 </r>
       <r>    3.9782    1.0000 </r>
       <r>    4.0038    1.0000 </r>
       <r>    4.0402    1.0000 </r>
       <r>    4.0927    1.0000 </r>
       <r>    4.3490    1.0000 </r>
       <r>    4.3554    1.0000 </r>
       <r>    4.3789    1.0000 </r>
       <r>    4.3911    1.0000 </r>
       <r>    4.4111    1.0000 </r>
       <r>    4.4435    1.0000 </r>
       <r>    4.4549    1.0000 </r>
       <r>    4.4758    1.0000 </r>
       <r>    4.6058    1.0000 </r>
       <r>    4.6371    1.0000 </r>
       <r>    4.6544    1.0000 </r>
       <r>    4.6988    1.0000 </r>
       <r>    4.7620    1.0000 </r>
       <r>    4.7987    1.0000 </r>
       <r>    4.8574    1.0000 </r>
       <r>    4.8827    1.0000 </r>
       <r>    4.9629    1.0000 </r>
       <r>    5.0222    1.0000 </r>
       <r>    5.3691    1.0000 </r>
       <r>    5.4277    1.0000 </r>
       <r>    5.5632    1.0000 </r>
       <r>    5.6021    1.0000 </r>
       <r>    5.6288    1.0000 </r>
       <r>    5.6651    1.0000 </r>
       <r>    5.8547    1.0000 </r>
       <r>    5.8892    1.0000 </r>
       <r>    5.9135    1.0000 </r>
       <r>    5.9395    1.0000 </r>
       <r>    6.1785    1.0000 </r>
       <r>    6.2188    1.0000 </r>
       <r>    6.2383    1.0000 </r>
       <r>    6.3128    1.0000 </r>
       <r>    6.3439    1.0000 </r>
       <r>    6.4412    1.0000 </r>
       <r>    6.4719    1.0000 </r>
       <r>    6.4857    1.0000 </r>
       <r>    6.5610    1.0000 </r>
       <r>    6.7449    1.0000 </r>
       <r>    6.7870    1.0000 </r>
       <r>    6.8283    1.0000 </r>
       <r>    6.8422    1.0000 </r>
       <r>    6.8535    1.0000 </r>
       <r>    6.8690    1.0000 </r>
       <r>    6.8878    1.0000 </r>
       <r>    6.9100    1.0000 </r>
       <r>    6.9279    1.0000 </r>
       <r>    6.9641    1.0000 </r>
       <r>    6.9733    1.0000 </r>
       <r>    6.9941    1.0000 </r>
       <r>    7.0212    1.0000 </r>
       <r>    7.1008    1.0000 </r>
       <r>    7.4775    1.0000 </r>
       <r>    7.6367    1.0005 </r>
       <r>    7.7458    1.0052 </r>
       <r>    9.6730   -0.0000 </r>
       <r>   10.1711   -0.0000 </r>
       <r>   10.2350   -0.0000 </r>
       <r>   10.6242   -0.0000 </r>
       <r>   11.9316   -0.0000 </r>
       <r>   11.9927   -0.0000 </r>
       <r>   12.4795   -0.0000 </r>
       <r>   12.5824   -0.0000 </r>
       <r>   12.6114   -0.0000 </r>
       <r>   12.6669   -0.0000 </r>
       <r>   12.7245   -0.0000 </r>
       <r>   12.9256   -0.0000 </r>
       <r>   12.9447   -0.0000 </r>
       <r>   12.9718   -0.0000 </r>
       <r>   12.9956   -0.0000 </r>
       <r>   13.0286   -0.0000 </r>
       <r>   13.0550   -0.0000 </r>
       <r>   13.0587   -0.0000 </r>
       <r>   13.0721   -0.0000 </r>
       <r>   13.1389   -0.0000 </r>
       <r>   13.1831   -0.0000 </r>
       <r>   13.2051   -0.0000 </r>
       <r>   13.4909   -0.0000 </r>
       <r>   13.5761   -0.0000 </r>
       <r>   13.5985   -0.0000 </r>
       <r>   13.6436    0.0000 </r>
       <r>   13.6584    0.0000 </r>
       <r>   13.6735    0.0000 </r>
       <r>   13.6952    0.0000 </r>
       <r>   13.7109    0.0000 </r>
       <r>   13.7285    0.0000 </r>
       <r>   13.9006    0.0000 </r>
       <r>   13.9346    0.0000 </r>
       <r>   14.0060    0.0000 </r>
       <r>   14.0610    0.0000 </r>
       <r>   14.4724    0.0000 </r>
       <r>   14.7950    0.0000 </r>
       <r>   14.8187    0.0000 </r>
       <r>   14.8594    0.0000 </r>
       <r>   14.8717    0.0000 </r>
      </set>
      <set comment="kpoint 4">
       <r>   -7.1628    1.0000 </r>
       <r>   -6.6291    1.0000 </r>
       <r>   -5.7063    1.0000 </r>
       <r>   -5.5699    1.0000 </r>
       <r>   -5.5691    1.0000 </r>
       <r>   -5.5443    1.0000 </r>
       <r>   -5.2133    1.0000 </r>
       <r>   -5.0838    1.0000 </r>
       <r>   -5.0726    1.0000 </r>
       <r>   -5.0529    1.0000 </r>
       <r>   -4.6007    1.0000 </r>
       <r>   -4.3045    1.0000 </r>
       <r>   -4.2458    1.0000 </r>
       <r>   -4.2207    1.0000 </r>
       <r>   -4.1500    1.0000 </r>
       <r>   -4.0336    1.0000 </r>
       <r>   -3.9864    1.0000 </r>
       <r>   -3.9694    1.0000 </r>
       <r>   -3.8844    1.0000 </r>
       <r>   -3.4982    1.0000 </r>
       <r>   -3.3953    1.0000 </r>
       <r>   -3.3613    1.0000 </r>
       <r>   -3.3386    1.0000 </r>
       <r>   -3.1976    1.0000 </r>
       <r>   -2.6255    1.0000 </r>
       <r>   -2.5113    1.0000 </r>
       <r>   -2.4819    1.0000 </r>
       <r>   -2.4648    1.0000 </r>
       <r>   -2.3145    1.0000 </r>
       <r>   -2.2662    1.0000 </r>
       <r>   -2.1994    1.0000 </r>
       <r>   -2.1506    1.0000 </r>
       <r>   -0.1045    1.0000 </r>
       <r>   -0.0356    1.0000 </r>
       <r>   -0.0016    1.0000 </r>
       <r>    0.0297    1.0000 </r>
       <r>    0.3675    1.0000 </r>
       <r>    0.3762    1.0000 </r>
       <r>    0.7176    1.0000 </r>
       <r>    0.7282    1.0000 </r>
       <r>    0.9735    1.0000 </r>
       <r>    1.0097    1.0000 </r>
       <r>    1.0382    1.0000 </r>
       <r>    1.0706    1.0000 </r>
       <r>    1.0978    1.0000 </r>
       <r>    1.1089    1.0000 </r>
       <r>    1.1365    1.0000 </r>
       <r>    1.1643    1.0000 </r>
       <r>    1.2329    1.0000 </r>
       <r>    1.3380    1.0000 </r>
       <r>    1.4127    1.0000 </r>
       <r>    1.4439    1.0000 </r>
       <r>    1.4759    1.0000 </r>
       <r>    2.6728    1.0000 </r>
       <r>    2.6831    1.0000 </r>
       <r>    2.7017    1.0000 </r>
       <r>    2.7526    1.0000 </r>
       <r>    2.9016    1.0000 </r>
       <r>    2.9161    1.0000 </r>
       <r>    2.9444    1.0000 </r>
       <r>    2.9684    1.0000 </r>
       <r>    2.9854    1.0000 </r>
       <r>    3.0201    1.0000 </r>
       <r>    3.0406    1.0000 </r>
       <r>    3.0629    1.0000 </r>
       <r>    3.0701    1.0000 </r>
       <r>    3.5189    1.0000 </r>
       <r>    3.5203    1.0000 </r>
       <r>    3.6444    1.0000 </r>
       <r>    3.6570    1.0000 </r>
       <r>    3.9659    1.0000 </r>
       <r>    4.0219    1.0000 </r>
       <r>    4.0467    1.0000 </r>
       <r>    4.0793    1.0000 </r>
       <r>    4.3262    1.0000 </r>
       <r>    4.3474    1.0000 </r>
       <r>    4.3595    1.0000 </r>
       <r>    4.3871    1.0000 </r>
       <r>    4.4115    1.0000 </r>
       <r>    4.4491    1.0000 </r>
       <r>    4.4718    1.0000 </r>
       <r>    4.4953    1.0000 </r>
       <r>    4.6077    1.0000 </r>
       <r>    4.6179    1.0000 </r>
       <r>    4.6611    1.0000 </r>
       <r>    4.7102    1.0000 </r>
       <r>    4.7540    1.0000 </r>
       <r>    4.8139    1.0000 </r>
       <r>    4.8406    1.0000 </r>
       <r>    4.9003    1.0000 </r>
       <r>    4.9757    1.0000 </r>
       <r>    5.0005    1.0000 </r>
       <r>    5.3899    1.0000 </r>
       <r>    5.4128    1.0000 </r>
       <r>    5.5539    1.0000 </r>
       <r>    5.5910    1.0000 </r>
       <r>    5.6436    1.0000 </r>
       <r>    5.6680    1.0000 </r>
       <r>    5.8210    1.0000 </r>
       <r>    5.8919    1.0000 </r>
       <r>    5.9220    1.0000 </r>
       <r>    5.9423    1.0000 </r>
       <r>    6.1472    1.0000 </r>
       <r>    6.2349    1.0000 </r>
       <r>    6.2587    1.0000 </r>
       <r>    6.2961    1.0000 </r>
       <r>    6.3243    1.0000 </r>
       <r>    6.4005    1.0000 </r>
       <r>    6.4823    1.0000 </r>
       <r>    6.5284    1.0000 </r>
       <r>    6.5765    1.0000 </r>
       <r>    6.7371    1.0000 </r>
       <r>    6.8059    1.0000 </r>
       <r>    6.8365    1.0000 </r>
       <r>    6.8459    1.0000 </r>
       <r>    6.8742    1.0000 </r>
       <r>    6.8840    1.0000 </r>
       <r>    6.9033    1.0000 </r>
       <r>    6.9231    1.0000 </r>
       <r>    6.9440    1.0000 </r>
       <r>    6.9583    1.0000 </r>
       <r>    6.9677    1.0000 </r>
       <r>    6.9815    1.0000 </r>
       <r>    7.0139    1.0000 </r>
       <r>    7.0471    1.0000 </r>
       <r>    7.4663    1.0000 </r>
       <r>    7.6803    1.0014 </r>
       <r>    7.7106    1.0027 </r>
       <r>    9.6739   -0.0000 </r>
       <r>   10.1920   -0.0000 </r>
       <r>   10.2112   -0.0000 </r>
       <r>   10.6274   -0.0000 </r>
       <r>   11.9514   -0.0000 </r>
       <r>   11.9757   -0.0000 </r>
       <r>   12.4735   -0.0000 </r>
       <r>   12.5625   -0.0000 </r>
       <r>   12.6308   -0.0000 </r>
       <r>   12.6645   -0.0000 </r>
       <r>   12.7171   -0.0000 </r>
       <r>   12.8965   -0.0000 </r>
       <r>   12.9386   -0.0000 </r>
       <r>   12.9747   -0.0000 </r>
       <r>   12.9985   -0.0000 </r>
       <r>   13.0247   -0.0000 </r>
       <r>   13.0693   -0.0000 </r>
       <r>   13.0871   -0.0000 </r>
       <r>   13.1015   -0.0000 </r>
       <r>   13.1180   -0.0000 </r>
       <r>   13.1707   -0.0000 </r>
       <r>   13.2159   -0.0000 </r>
       <r>   13.4803   -0.0000 </r>
       <r>   13.5765   -0.0000 </r>
       <r>   13.6026   -0.0000 </r>
       <r>   13.6351    0.0000 </r>
       <r>   13.6694    0.0000 </r>
       <r>   13.6882    0.0000 </r>
       <r>   13.7023    0.0000 </r>
       <r>   13.7136    0.0000 </r>
       <r>   13.7237    0.0000 </r>
       <r>   13.9061    0.0000 </r>
       <r>   13.9420    0.0000 </r>
       <r>   13.9970    0.0000 </r>
       <r>   14.0488    0.0000 </r>
       <r>   14.4677    0.0000 </r>
       <r>   14.7539    0.0000 </r>
       <r>   14.8319    0.0000 </r>
       <r>   14.8504    0.0000 </r>
       <r>   14.8811    0.0000 </r>
      </set>
      <set comment="kpoint 5">
       <r>   -6.9861    1.0000 </r>
       <r>   -6.4907    1.0000 </r>
       <r>   -6.4198    1.0000 </r>
       <r>   -5.9432    1.0000 </r>
       <r>   -5.4394    1.0000 </r>
       <r>   -5.4305    1.0000 </r>
       <r>   -5.0164    1.0000 </r>
       <r>   -4.9986    1.0000 </r>
       <r>   -4.9448    1.0000 </r>
       <r>   -4.8965    1.0000 </r>
       <r>   -4.5701    1.0000 </r>
       <r>   -4.5523    1.0000 </r>
       <r>   -4.4483    1.0000 </r>
       <r>   -4.3914    1.0000 </r>
       <r>   -4.0286    1.0000 </r>
       <r>   -4.0133    1.0000 </r>
       <r>   -3.5437    1.0000 </r>
       <r>   -3.5108    1.0000 </r>
       <r>   -3.4280    1.0000 </r>
       <r>   -3.4154    1.0000 </r>
       <r>   -3.3763    1.0000 </r>
       <r>   -3.3217    1.0000 </r>
       <r>   -3.1261    1.0000 </r>
       <r>   -3.0921    1.0000 </r>
       <r>   -2.8976    1.0000 </r>
       <r>   -2.8142    1.0000 </r>
       <r>   -2.7767    1.0000 </r>
       <r>   -2.7108    1.0000 </r>
       <r>   -2.6748    1.0000 </r>
       <r>   -2.3374    1.0000 </r>
       <r>   -2.2806    1.0000 </r>
       <r>   -2.2574    1.0000 </r>
       <r>   -0.2110    1.0000 </r>
       <r>   -0.1457    1.0000 </r>
       <r>    0.4600    1.0000 </r>
       <r>    0.4902    1.0000 </r>
       <r>    0.5370    1.0000 </r>
       <r>    0.5876    1.0000 </r>
       <r>    0.6177    1.0000 </r>
       <r>    0.6254    1.0000 </r>
       <r>    0.6792    1.0000 </r>
       <r>    0.7569    1.0000 </r>
       <r>    0.7969    1.0000 </r>
       <r>    0.8472    1.0000 </r>
       <r>    0.8809    1.0000 </r>
       <r>    0.9964    1.0000 </r>
       <r>    1.1913    1.0000 </r>
       <r>    1.2328    1.0000 </r>
       <r>    1.2710    1.0000 </r>
       <r>    1.2731    1.0000 </r>
       <r>    1.9853    1.0000 </r>
       <r>    2.0101    1.0000 </r>
       <r>    2.0217    1.0000 </r>
       <r>    2.0730    1.0000 </r>
       <r>    2.1100    1.0000 </r>
       <r>    2.1250    1.0000 </r>
       <r>    2.4192    1.0000 </r>
       <r>    2.5606    1.0000 </r>
       <r>    2.5730    1.0000 </r>
       <r>    2.6706    1.0000 </r>
       <r>    2.7327    1.0000 </r>
       <r>    3.2021    1.0000 </r>
       <r>    3.2531    1.0000 </r>
       <r>    3.2960    1.0000 </r>
       <r>    3.3153    1.0000 </r>
       <r>    3.3598    1.0000 </r>
       <r>    3.4887    1.0000 </r>
       <r>    3.5528    1.0000 </r>
       <r>    3.9014    1.0000 </r>
       <r>    3.9184    1.0000 </r>
       <r>    4.0154    1.0000 </r>
       <r>    4.0365    1.0000 </r>
       <r>    4.0538    1.0000 </r>
       <r>    4.0727    1.0000 </r>
       <r>    4.1234    1.0000 </r>
       <r>    4.2837    1.0000 </r>
       <r>    4.3008    1.0000 </r>
       <r>    4.4793    1.0000 </r>
       <r>    4.5000    1.0000 </r>
       <r>    4.6650    1.0000 </r>
       <r>    4.6862    1.0000 </r>
       <r>    4.8149    1.0000 </r>
       <r>    4.8922    1.0000 </r>
       <r>    4.9197    1.0000 </r>
       <r>    4.9332    1.0000 </r>
       <r>    4.9461    1.0000 </r>
       <r>    4.9826    1.0000 </r>
       <r>    5.0751    1.0000 </r>
       <r>    5.2634    1.0000 </r>
       <r>    5.2833    1.0000 </r>
       <r>    5.3864    1.0000 </r>
       <r>    5.4193    1.0000 </r>
       <r>    5.4535    1.0000 </r>
       <r>    5.4734    1.0000 </r>
       <r>    5.5471    1.0000 </r>
       <r>    5.5552    1.0000 </r>
       <r>    5.5771    1.0000 </r>
       <r>    5.6014    1.0000 </r>
       <r>    5.6361    1.0000 </r>
       <r>    5.6649    1.0000 </r>
       <r>    5.6869    1.0000 </r>
       <r>    5.8350    1.0000 </r>
       <r>    5.9741    1.0000 </r>
       <r>    6.0200    1.0000 </r>
       <r>    6.0239    1.0000 </r>
       <r>    6.0761    1.0000 </r>
       <r>    6.1850    1.0000 </r>
       <r>    6.2270    1.0000 </r>
       <r>    6.2708    1.0000 </r>
       <r>    6.2942    1.0000 </r>
       <r>    6.3884    1.0000 </r>
       <r>    6.4211    1.0000 </r>
       <r>    6.4742    1.0000 </r>
       <r>    6.5181    1.0000 </r>
       <r>    6.5661    1.0000 </r>
       <r>    6.6413    1.0000 </r>
       <r>    6.6799    1.0000 </r>
       <r>    6.7152    1.0000 </r>
       <r>    6.7530    1.0000 </r>
       <r>    6.8439    1.0000 </r>
       <r>    6.8838    1.0000 </r>
       <r>    6.9061    1.0000 </r>
       <r>    6.9360    1.0000 </r>
       <r>    7.3115    1.0000 </r>
       <r>    7.4815    1.0000 </r>
       <r>    7.5556    1.0001 </r>
       <r>    7.6175    1.0003 </r>
       <r>    7.9585    1.0304 </r>
       <r>   10.3868   -0.0000 </r>
       <r>   10.4910   -0.0000 </r>
       <r>   10.5118   -0.0000 </r>
       <r>   11.2982   -0.0000 </r>
       <r>   11.3590   -0.0000 </r>
       <r>   11.6374   -0.0000 </r>
       <r>   11.6916   -0.0000 </r>
       <r>   11.7990   -0.0000 </r>
       <r>   12.1583   -0.0000 </r>
       <r>   12.2316   -0.0000 </r>
       <r>   12.8056   -0.0000 </r>
       <r>   12.8465   -0.0000 </r>
       <r>   12.8653   -0.0000 </r>
       <r>   12.8868   -0.0000 </r>
       <r>   13.0650   -0.0000 </r>
       <r>   13.0782   -0.0000 </r>
       <r>   13.1248   -0.0000 </r>
       <r>   13.1424   -0.0000 </r>
       <r>   13.1678   -0.0000 </r>
       <r>   13.1972   -0.0000 </r>
       <r>   13.2796   -0.0000 </r>
       <r>   13.2982   -0.0000 </r>
       <r>   13.5179   -0.0000 </r>
       <r>   13.5533   -0.0000 </r>
       <r>   13.6023   -0.0000 </r>
       <r>   13.6052   -0.0000 </r>
       <r>   13.7294    0.0000 </r>
       <r>   13.7433    0.0000 </r>
       <r>   13.7684    0.0000 </r>
       <r>   13.8128    0.0000 </r>
       <r>   13.8818    0.0000 </r>
       <r>   13.9021    0.0000 </r>
       <r>   14.0057    0.0000 </r>
       <r>   14.0709    0.0000 </r>
       <r>   14.1049    0.0000 </r>
       <r>   14.6576    0.0000 </r>
       <r>   14.7258    0.0000 </r>
       <r>   14.7522    0.0000 </r>
       <r>   14.9319    0.0000 </r>
       <r>   15.0191    0.0000 </r>
      </set>
      <set comment="kpoint 6">
       <r>   -6.9853    1.0000 </r>
       <r>   -6.4907    1.0000 </r>
       <r>   -6.4213    1.0000 </r>
       <r>   -5.9427    1.0000 </r>
       <r>   -5.4739    1.0000 </r>
       <r>   -5.3964    1.0000 </r>
       <r>   -5.0538    1.0000 </r>
       <r>   -4.9898    1.0000 </r>
       <r>   -4.9437    1.0000 </r>
       <r>   -4.8463    1.0000 </r>
       <r>   -4.5957    1.0000 </r>
       <r>   -4.5232    1.0000 </r>
       <r>   -4.4633    1.0000 </r>
       <r>   -4.3993    1.0000 </r>
       <r>   -4.0567    1.0000 </r>
       <r>   -3.9795    1.0000 </r>
       <r>   -3.5589    1.0000 </r>
       <r>   -3.4984    1.0000 </r>
       <r>   -3.4894    1.0000 </r>
       <r>   -3.3984    1.0000 </r>
       <r>   -3.3764    1.0000 </r>
       <r>   -3.2703    1.0000 </r>
       <r>   -3.1552    1.0000 </r>
       <r>   -3.0833    1.0000 </r>
       <r>   -2.9002    1.0000 </r>
       <r>   -2.8123    1.0000 </r>
       <r>   -2.7646    1.0000 </r>
       <r>   -2.7421    1.0000 </r>
       <r>   -2.6235    1.0000 </r>
       <r>   -2.3681    1.0000 </r>
       <r>   -2.2857    1.0000 </r>
       <r>   -2.2451    1.0000 </r>
       <r>   -0.2258    1.0000 </r>
       <r>   -0.1298    1.0000 </r>
       <r>    0.4548    1.0000 </r>
       <r>    0.5082    1.0000 </r>
       <r>    0.5344    1.0000 </r>
       <r>    0.5666    1.0000 </r>
       <r>    0.6084    1.0000 </r>
       <r>    0.6379    1.0000 </r>
       <r>    0.6725    1.0000 </r>
       <r>    0.7772    1.0000 </r>
       <r>    0.8107    1.0000 </r>
       <r>    0.8276    1.0000 </r>
       <r>    0.8717    1.0000 </r>
       <r>    0.9981    1.0000 </r>
       <r>    1.1932    1.0000 </r>
       <r>    1.2359    1.0000 </r>
       <r>    1.2544    1.0000 </r>
       <r>    1.2979    1.0000 </r>
       <r>    1.9540    1.0000 </r>
       <r>    1.9965    1.0000 </r>
       <r>    2.0375    1.0000 </r>
       <r>    2.0762    1.0000 </r>
       <r>    2.1053    1.0000 </r>
       <r>    2.1605    1.0000 </r>
       <r>    2.4102    1.0000 </r>
       <r>    2.5619    1.0000 </r>
       <r>    2.5881    1.0000 </r>
       <r>    2.6587    1.0000 </r>
       <r>    2.7392    1.0000 </r>
       <r>    3.1983    1.0000 </r>
[...]
      </set>
     </set>
    </set>
   </array>
  </eigenvalues>
  <separator name="orbital magnetization" >
   <v name="MAGDIPOLOUT">      0.00000000      0.00000000      0.00000000</v>
  </separator>
  <dos>
   <i name="efermi">      8.17089902 </i>
   <total>
    <array>
     <dimension dim="1">gridpoints</dimension>
     <dimension dim="2">spin</dimension>
     <field>energy</field>
     <field>total</field>
     <field>integrated</field>
     <set>
      <set comment="spin 1">
       <r>    -9.3417     0.0000     0.0000 </r>
       <r>    -9.2523     0.0000     0.0000 </r>
       <r>    -9.1629     0.0000     0.0000 </r>
       <r>    -9.0735     0.0000     0.0000 </r>
       <r>    -8.9841    -0.0000    -0.0000 </r>
       <r>    -8.8947    -0.0000    -0.0000 </r>
       <r>    -8.8053    -0.0000    -0.0000 </r>
       <r>    -8.7159    -0.0000    -0.0000 </r>
       <r>    -8.6265    -0.0000    -0.0000 </r>
       <r>    -8.5371    -0.0000    -0.0000 </r>
       <r>    -8.4477    -0.0000    -0.0000 </r>
       <r>    -8.3583    -0.0000    -0.0000 </r>
       <r>    -8.2689    -0.0000    -0.0000 </r>
       <r>    -8.1795    -0.0000    -0.0000 </r>
       <r>    -8.0901    -0.0000    -0.0000 </r>
       <r>    -8.0007    -0.0000    -0.0000 </r>
       <r>    -7.9113    -0.0002    -0.0000 </r>
       <r>    -7.8219    -0.0014    -0.0001 </r>
       <r>    -7.7325    -0.0072    -0.0008 </r>
       <r>    -7.6431    -0.0229    -0.0028 </r>
       <r>    -7.5537    -0.0416    -0.0066 </r>
       <r>    -7.4643    -0.0196    -0.0083 </r>
       <r>    -7.3749     0.1460     0.0047 </r>
       <r>    -7.2855     0.6301     0.0611 </r>
       <r>    -7.1961     1.5540     0.2000 </r>
       <r>    -7.1067     2.8098     0.4512 </r>
       <r>    -7.0173     4.0296     0.8114 </r>
       <r>    -6.9279     4.5662     1.2196 </r>
       <r>    -6.8385     4.0791     1.5843 </r>
       <r>    -6.7491     3.1209     1.8633 </r>
       <r>    -6.6597     2.7863     2.1124 </r>
       <r>    -6.5703     4.1947     2.4874 </r>
       <r>    -6.4810     7.2617     3.1366 </r>
       <r>    -6.3916     9.9724     4.0281 </r>
       <r>    -6.3022    10.1873     4.9388 </r>
       <r>    -6.2128     7.5041     5.6096 </r>
       <r>    -6.1234     3.7465     5.9446 </r>
       <r>    -6.0340     2.0874     6.1312 </r>
       <r>    -5.9446     3.8588     6.4761 </r>
       <r>    -5.8552     7.3526     7.1334 </r>
       <r>    -5.7658    10.2708     8.0516 </r>
       <r>    -5.6764    11.4736     9.0773 </r>
       <r>    -5.5870    11.4082    10.0972 </r>
       <r>    -5.4976    11.0797    11.0877 </r>
       <r>    -5.4082    10.1119    11.9916 </r>
       <r>    -5.3188     7.8935    12.6973 </r>
       <r>    -5.2294     6.3273    13.2630 </r>
       <r>    -5.1400     8.4683    14.0200 </r>
       <r>    -5.0506    13.7287    15.2473 </r>
       <r>    -4.9612    16.6672    16.7373 </r>
       <r>    -4.8718    13.1489    17.9128 </r>
       <r>    -4.7824     6.3699    18.4822 </r>
       <r>    -4.6930     3.3431    18.7811 </r>
       <r>    -4.6036     6.5156    19.3636 </r>
       <r>    -4.5142    12.3141    20.4644 </r>
       <r>    -4.4248    17.0563    21.9892 </r>
       <r>    -4.3354    19.2550    23.7106 </r>
       <r>    -4.2460    17.8598    25.3072 </r>
       <r>    -4.1566    15.1246    26.6593 </r>
       <r>    -4.0672    16.6483    28.1476 </r>
       <r>    -3.9778    22.0163    30.1158 </r>
       <r>    -3.8884    23.4746    32.2144 </r>
       <r>    -3.7990    18.0987    33.8324 </r>
       <r>    -3.7096    11.9916    34.9044 </r>
       <r>    -3.6202    11.3110    35.9155 </r>
       <r>    -3.5308    16.1374    37.3582 </r>
       <r>    -3.4414    21.8256    39.3093 </r>
       <r>    -3.3520    22.6871    41.3375 </r>
       <r>    -3.2626    18.3155    42.9748 </r>
       <r>    -3.1733    15.1310    44.3275 </r>
       <r>    -3.0839    16.8178    45.8310 </r>
       <r>    -2.9945    20.6855    47.6802 </r>
       <r>    -2.9051    24.8311    49.9000 </r>
       <r>    -2.8157    28.1180    52.4137 </r>
       <r>    -2.7263    26.9282    54.8210 </r>
       <r>    -2.6369    20.1840    56.6254 </r>
       <r>    -2.5475    12.5755    57.7496 </r>
       <r>    -2.4581     9.7253    58.6191 </r>
       <r>    -2.3687    12.7772    59.7613 </r>
       <r>    -2.2793    17.0350    61.2842 </r>
       <r>    -2.1899    16.3328    62.7443 </r>
       <r>    -2.1005    10.3176    63.6667 </r>
       <r>    -2.0111     3.9545    64.0202 </r>
       <r>    -1.9217     0.5508    64.0694 </r>
       <r>    -1.8323    -0.3491    64.0382 </r>
       <r>    -1.7429    -0.2834    64.0129 </r>
       <r>    -1.6535    -0.1105    64.0030 </r>
       <r>    -1.5641    -0.0280    64.0005 </r>
       <r>    -1.4747    -0.0048    64.0001 </r>
       <r>    -1.3853    -0.0006    64.0000 </r>
       <r>    -1.2959    -0.0000    64.0000 </r>
       <r>    -1.2065    -0.0000    64.0000 </r>
       <r>    -1.1171    -0.0003    64.0000 </r>
       <r>    -1.0277    -0.0026    63.9997 </r>
       <r>    -0.9383    -0.0130    63.9986 </r>
       <r>    -0.8489    -0.0372    63.9953 </r>
       <r>    -0.7595    -0.0386    63.9918 </r>
       <r>    -0.6701     0.1028    64.0010 </r>
       <r>    -0.5807     0.4293    64.0394 </r>
       <r>    -0.4913     0.6607    64.0984 </r>
       <r>    -0.4019     0.7564    64.1661 </r>
       <r>    -0.3125     1.9516    64.3405 </r>
       <r>    -0.2231     5.4631    64.8289 </r>
       <r>    -0.1337     9.5487    65.6825 </r>
       <r>    -0.0443    10.6861    66.6378 </r>
       <r>     0.0451     8.3060    67.3804 </r>
       <r>     0.1344     6.0744    67.9234 </r>
       <r>     0.2238     7.8241    68.6229 </r>
       <r>     0.3132    13.2670    69.8089 </r>
       <r>     0.4026    19.1714    71.5228 </r>
       <r>     0.4920    22.9940    73.5784 </r>
       <r>     0.5814    24.2804    75.7490 </r>
       <r>     0.6708    25.2604    78.0072 </r>
       <r>     0.7602    28.5479    80.5593 </r>
       <r>     0.8496    31.9477    83.4153 </r>
       <r>     0.9390    31.1880    86.2034 </r>
       <r>     1.0284    28.7198    88.7709 </r>
       <r>     1.1178    30.8863    91.5321 </r>
       <r>     1.2072    36.8000    94.8219 </r>
       <r>     1.2966    38.0215    98.2209 </r>
       <r>     1.3860    29.7195   100.8778 </r>
       <r>     1.4754    16.3878   102.3428 </r>
       <r>     1.5648     5.3670   102.8226 </r>
       <r>     1.6542    -0.1215   102.8117 </r>
       <r>     1.7436    -0.8999   102.7313 </r>
       <r>     1.8330     1.8038   102.8925 </r>
       <r>     1.9224     8.4524   103.6482 </r>
       <r>     2.0118    18.3204   105.2859 </r>
       <r>     2.1012    25.4534   107.5614 </r>
       <r>     2.1906    23.4284   109.6559 </r>
       <r>     2.2800    14.4959   110.9517 </r>
       <r>     2.3694     7.0507   111.5821 </r>
       <r>     2.4588     5.8682   112.1067 </r>
       <r>     2.5482    10.2142   113.0198 </r>
       <r>     2.6376    16.0463   114.4543 </r>
       <r>     2.7270    17.6640   116.0334 </r>
       <r>     2.8164    14.3016   117.3119 </r>
       <r>     2.9058    12.4740   118.4271 </r>
       <r>     2.9952    15.8642   119.8453 </r>
       <r>     3.0846    21.1967   121.7402 </r>
       <r>     3.1740    26.5536   124.1140 </r>
       <r>     3.2634    31.8335   126.9599 </r>
       <r>     3.3528    33.1770   129.9258 </r>
       <r>     3.4421    29.5810   132.5703 </r>
       <r>     3.5315    26.3224   134.9234 </r>
       <r>     3.6209    24.1456   137.0820 </r>
       <r>     3.7103    19.2000   138.7984 </r>
       <r>     3.7997    13.3913   139.9955 </r>
       <r>     3.8891    13.4872   141.2013 </r>
       <r>     3.9785    20.2793   143.0142 </r>
       <r>     4.0679    25.0528   145.2538 </r>
       <r>     4.1573    21.9470   147.2158 </r>
       <r>     4.2467    18.3030   148.8521 </r>
       <r>     4.3361    22.7896   150.8894 </r>
       <r>     4.4255    31.2860   153.6863 </r>
       <r>     4.5149    35.8835   156.8942 </r>
       <r>     4.6043    35.9437   160.1074 </r>
       <r>     4.6937    34.3228   163.1758 </r>
       <r>     4.7831    34.0009   166.2154 </r>
       <r>     4.8725    35.9234   169.4268 </r>
       <r>     4.9619    35.9839   172.6437 </r>
       <r>     5.0513    32.2097   175.5232 </r>
       <r>     5.1407    29.3570   178.1476 </r>
       <r>     5.2301    29.9778   180.8275 </r>
       <r>     5.3195    30.8285   183.5835 </r>
       <r>     5.4089    30.9748   186.3526 </r>
       <r>     5.4983    34.5628   189.4424 </r>
       <r>     5.5877    41.3426   193.1383 </r>
       <r>     5.6771    43.1652   196.9972 </r>
       <r>     5.7665    37.6417   200.3622 </r>
       <r>     5.8559    33.1180   203.3229 </r>
       <r>     5.9453    33.0946   206.2815 </r>
       <r>     6.0347    32.1923   209.1594 </r>
       <r>     6.1241    29.5814   211.8039 </r>
       <r>     6.2135    30.1027   214.4950 </r>
       <r>     6.3029    33.2505   217.4675 </r>
       <r>     6.3923    34.8340   220.5815 </r>
       <r>     6.4817    33.7685   223.6003 </r>
       <r>     6.5711    29.9452   226.2774 </r>
       <r>     6.6605    25.8851   228.5914 </r>
       <r>     6.7498    27.8555   231.0816 </r>
       <r>     6.8392    36.7128   234.3637 </r>
       <r>     6.9286    43.2578   238.2308 </r>
       <r>     7.0180    38.2326   241.6487 </r>
       <r>     7.1074    24.5264   243.8413 </r>
       <r>     7.1968    13.5404   245.0518 </r>
       <r>     7.2862    11.3045   246.0623 </r>
       <r>     7.3756    14.9451   247.3984 </r>
       <r>     7.4650    19.4001   249.1327 </r>
       <r>     7.5544    21.2471   251.0321 </r>
       <r>     7.6438    19.2403   252.7522 </r>
       <r>     7.7332    14.2587   254.0269 </r>
       <r>     7.8226     8.5520   254.7914 </r>
       <r>     7.9120     4.9245   255.2316 </r>
       <r>     8.0014     3.9085   255.5810 </r>
       <r>     8.0908     3.1791   255.8652 </r>
       <r>     8.1802     1.5964   256.0080 </r>
       <r>     8.2696     0.2562   256.0309 </r>
       <r>     8.3590    -0.1739   256.0153 </r>
       <r>     8.4484    -0.1248   256.0042 </r>
       <r>     8.5378    -0.0386   256.0007 </r>
       <r>     8.6272    -0.0071   256.0001 </r>
       <r>     8.7166    -0.0010   256.0000 </r>
       <r>     8.8060    -0.0017   255.9998 </r>
       <r>     8.8954    -0.0085   255.9991 </r>
       <r>     8.9848    -0.0247   255.9969 </r>
       <r>     9.0742    -0.0254   255.9946 </r>
       <r>     9.1636     0.0757   256.0014 </r>
       <r>     9.2530     0.3409   256.0318 </r>
       <r>     9.3424     0.6238   256.0876 </r>
       <r>     9.4318     0.7039   256.1505 </r>
       <r>     9.5212     0.7890   256.2211 </r>
       <r>     9.6106     1.2916   256.3365 </r>
       <r>     9.7000     1.7823   256.4959 </r>
       <r>     9.7894     1.4032   256.6213 </r>
       <r>     9.8788     0.4153   256.6584 </r>
       <r>     9.9682    -0.1241   256.6473 </r>
       <r>    10.0576     0.4309   256.6858 </r>
       <r>    10.1469     1.9303   256.8584 </r>
       <r>    10.2363     3.6047   257.1807 </r>
       <r>    10.3257     5.3764   257.6613 </r>
       <r>    10.4151     7.9210   258.3694 </r>
       <r>    10.5045    10.5015   259.3082 </r>
       <r>    10.5939    11.5375   260.3397 </r>
       <r>    10.6833    10.6787   261.2943 </r>
       <r>    10.7727     8.0896   262.0175 </r>
       <r>    10.8621     4.2860   262.4006 </r>
       <r>    10.9515     0.9525   262.4858 </r>
       <r>    11.0409    -0.6029   262.4319 </r>
       <r>    11.1303    -0.2683   262.4079 </r>
       <r>    11.2197     2.0478   262.5910 </r>
       <r>    11.3091     5.5073   263.0833 </r>
       <r>    11.3985     7.9533   263.7943 </r>
       <r>    11.4879     9.3136   264.6269 </r>
       <r>    11.5773    11.1328   265.6222 </r>
       <r>    11.6667    12.8459   266.7706 </r>
       <r>    11.7561    14.2928   268.0483 </r>
       <r>    11.8455    17.2393   269.5894 </r>
       <r>    11.9349    20.7348   271.4431 </r>
       <r>    12.0243    21.4898   273.3642 </r>
       <r>    12.1137    18.8065   275.0455 </r>
       <r>    12.2031    13.9899   276.2961 </r>
       <r>    12.2925     8.0000   277.0113 </r>
       <r>    12.3819     3.4388   277.3187 </r>
       <r>    12.4713     4.3602   277.7085 </r>
       <r>    12.5607    11.2905   278.7178 </r>
       <r>    12.6501    19.7434   280.4829 </r>
       <r>    12.7395    25.5142   282.7638 </r>
       <r>    12.8289    28.4025   285.3029 </r>
       <r>    12.9183    29.7547   287.9628 </r>
       <r>    13.0077    31.4038   290.7703 </r>
       <r>    13.0971    34.1604   293.8241 </r>
       <r>    13.1865    33.9651   296.8605 </r>
       <r>    13.2759    26.8564   299.2614 </r>
       <r>    13.3653    17.1110   300.7911 </r>
       <r>    13.4546    14.5193   302.0891 </r>
       <r>    13.5440    22.7596   304.1237 </r>
       <r>    13.6334    33.2945   307.1001 </r>
       <r>    13.7228    35.5240   310.2759 </r>
       <r>    13.8122    30.0044   312.9582 </r>
       <r>    13.9016    26.0144   315.2838 </r>
       <r>    13.9910    28.3496   317.8182 </r>
       <r>    14.0804    31.9859   320.6776 </r>
       <r>    14.1698    29.9524   323.3553 </r>
       <r>    14.2592    21.3264   325.2618 </r>
       <r>    14.3486    10.6718   326.2159 </r>
       <r>    14.4380     3.4572   326.5249 </r>
       <r>    14.5274     2.8475   326.7795 </r>
       <r>    14.6168     8.8995   327.5751 </r>
       <r>    14.7062    17.5263   329.1419 </r>
       <r>    14.7956    21.8777   331.0977 </r>
       <r>    14.8850    19.3549   332.8280 </r>
       <r>    14.9744    13.2889   334.0160 </r>
       <r>    15.0638     7.0280   334.6442 </r>
       <r>    15.1532     2.2502   334.8454 </r>
       <r>    15.2426     0.4157   334.8826 </r>
       <r>    15.3320     1.6992   335.0345 </r>
       <r>    15.4214     3.9328   335.3861 </r>
       <r>    15.5108     4.2872   335.7693 </r>
       <r>    15.6002     2.4497   335.9883 </r>
       <r>    15.6896     0.5370   336.0363 </r>
       <r>    15.7790    -0.1808   336.0202 </r>
       <r>    15.8684    -0.1629   336.0056 </r>
       <r>    15.9578    -0.0521   336.0009 </r>
       <r>    16.0472    -0.0094   336.0001 </r>
       <r>    16.1366    -0.0011   336.0000 </r>
       <r>    16.2260    -0.0001   336.0000 </r>
       <r>    16.3154    -0.0000   336.0000 </r>
       <r>    16.4048    -0.0000   336.0000 </r>
       <r>    16.4942    -0.0000   336.0000 </r>
       <r>    16.5836    -0.0000   336.0000 </r>
       <r>    16.6730    -0.0000   336.0000 </r>
       <r>    16.7623    -0.0000   336.0000 </r>
       <r>    16.8517     0.0000   336.0000 </r>
       <r>    16.9411     0.0000   336.0000 </r>
       <r>    17.0305     0.0000   336.0000 </r>
       <r>    17.1199     0.0000   336.0000 </r>
       <r>    17.2093     0.0000   336.0000 </r>
       <r>    17.2987     0.0000   336.0000 </r>
       <r>    17.3881     0.0000   336.0000 </r>
       <r>    17.4775     0.0000   336.0000 </r>
      </set>
     </set>
    </array>
   </total>
  </dos>
 </calculation>
 <structure name="finalpos" >
  <crystal>
   <varray name="basis" >
    <v>       8.74331558       0.00000000       0.00000000 </v>
    <v>       0.00000000       8.74331558       0.00000000 </v>
    <v>       0.00000000       0.00000000       8.74331558 </v>
   </varray>
   <i name="volume">    668.38771987 </i>
   <varray name="rec_basis" >
    <v>       0.11437309       0.00000000       0.00000000 </v>
    <v>       0.00000000       0.11437309       0.00000000 </v>
    <v>       0.00000000       0.00000000       0.11437309 </v>
   </varray>
  </crystal>
  <varray name="positions" >
   <v>       0.12250585       0.12043040       0.12618255 </v>
   <v>       0.12506232       0.37040724       0.37634129 </v>
   <v>       0.37532397       0.12261216       0.37111722 </v>
   <v>       0.37832435       0.37087068       0.12694211 </v>
   <v>       0.12158772       0.12558939       0.62444628 </v>
   <v>       0.12747823       0.37438970       0.87481855 </v>
   <v>       0.37592487       0.12283201       0.88105824 </v>
   <v>       0.37399387       0.37434033       0.62721570 </v>
   <v>       0.13041806       0.62409985       0.12471481 </v>
   <v>       0.12137702       0.87303418       0.37706409 </v>
   <v>       0.37703057       0.62523470       0.37451988 </v>
   <v>       0.37333447       0.87497905       0.12193648 </v>
   <v>       0.13152018       0.62350201       0.62631704 </v>
   <v>       0.12557074       0.87492767       0.87527858 </v>
   <v>       0.37631502       0.62211952       0.87385125 </v>
   <v>       0.37620495       0.87628726       0.62743091 </v>
   <v>       0.62504585       0.12097082       0.12336347 </v>
   <v>       0.63026445       0.37411445       0.37284048 </v>
   <v>       0.87325143       0.12672878       0.37566745 </v>
   <v>       0.87742894       0.37116809       0.12144165 </v>
   <v>       0.62683128       0.11946512       0.62421544 </v>
   <v>       0.62624402       0.37730606       0.87450024 </v>
   <v>       0.87724016       0.12423655       0.87149244 </v>
   <v>       0.87639309       0.37408709       0.62562546 </v>
   <v>       0.62918798       0.62644636       0.12298144 </v>
   <v>       0.62638201       0.87499441       0.37806276 </v>
   <v>       0.87443382       0.62291451       0.37501753 </v>
   <v>       0.87562223       0.87364647       0.12221345 </v>
   <v>       0.62600979       0.62604307       0.62766482 </v>
   <v>       0.61981930       0.87600899       0.87594672 </v>
   <v>       0.87964183       0.62760760       0.87214670 </v>
   <v>       0.87470817       0.87382961       0.62601457 </v>
   <v>       0.99949986       0.99810121       0.99914354 </v>
   <v>       0.00090550       0.25171706       0.24889043 </v>
   <v>       0.24615275       0.99964787       0.24990571 </v>
   <v>       0.25247424       0.25063912       0.99605592 </v>
   <v>       0.00126323       0.00315517       0.50082511 </v>
   <v>       0.00074740       0.24895746       0.74978078 </v>
   <v>       0.25000252       0.99787420       0.75396933 </v>
   <v>       0.25054019       0.24896384       0.49883149 </v>
   <v>       0.00337870       0.50041898       0.99890390 </v>
   <v>       0.00343196       0.74866747       0.24780974 </v>
   <v>       0.25222786       0.49757187       0.24923303 </v>
   <v>       0.24513016       0.74429987       0.00073935 </v>
   <v>       0.00147443       0.50609182       0.50106242 </v>
   <v>       0.00014889       0.74961771       0.74708503 </v>
   <v>       0.24744885       0.49983692       0.75162531 </v>
   <v>       0.25124260       0.74807988       0.49920295 </v>
   <v>       0.50412076       0.00599456       0.99571243 </v>
   <v>       0.50182886       0.24984631       0.24726726 </v>
   <v>       0.75438539       0.00050566       0.25486039 </v>
   <v>       0.75016990       0.25296935       0.00057379 </v>
   <v>       0.50282733       0.00012548       0.50075645 </v>
   <v>       0.50104191       0.24685977       0.74883370 </v>
   <v>       0.74995513       0.00373573       0.75297875 </v>
   <v>       0.75044315       0.24904098       0.50209637 </v>
   <v>       0.50264506       0.50151421       0.00123549 </v>
   <v>       0.49886546       0.75351512       0.24955406 </v>
   <v>       0.74930369       0.49583551       0.24605573 </v>
   <v>       0.74876795       0.75262952       0.99892295 </v>
   <v>       0.49863269       0.49933539       0.49869028 </v>
   <v>       0.49953736       0.75142291       0.74741570 </v>
   <v>       0.75171130       0.50207717       0.75008128 </v>
   <v>       0.74927686       0.74973185       0.49701201 </v>
  </varray>
 </structure>
</modeling>
