unknown system                          
           1
     8.743316    0.000000    0.000000
     0.000000    8.743316    0.000000
     0.000000    0.000000    8.743316
   C    Si
    32    32
Direct configuration=     1
   0.12250585  0.12043040  0.12618255
   0.12506232  0.37040724  0.37634129
   0.37532397  0.12261216  0.37111722
   0.37832435  0.37087068  0.12694211
   0.12158772  0.12558939  0.62444628
   0.12747823  0.37438970  0.87481855
   0.37592487  0.12283201  0.88105824
   0.37399387  0.37434033  0.62721570
   0.13041806  0.62409985  0.12471481
   0.12137702  0.87303418  0.37706409
   0.37703057  0.62523470  0.37451988
   0.37333447  0.87497905  0.12193648
   0.13152018  0.62350201  0.62631704
   0.12557074  0.87492767  0.87527858
   0.37631502  0.62211952  0.87385125
   0.37620495  0.87628726  0.62743091
   0.62504585  0.12097082  0.12336347
   0.63026445  0.37411445  0.37284048
   0.87325143  0.12672878  0.37566745
   0.87742894  0.37116809  0.12144165
   0.62683128  0.11946512  0.62421544
   0.62624402  0.37730606  0.87450024
   0.87724016  0.12423655  0.87149244
   0.87639309  0.37408709  0.62562546
   0.62918798  0.62644636  0.12298144
   0.62638201  0.87499441  0.37806276
   0.87443382  0.62291451  0.37501753
   0.87562223  0.87364647  0.12221345
   0.62600979  0.62604307  0.62766482
   0.61981930  0.87600899  0.87594672
   0.87964183  0.62760760  0.87214670
   0.87470817  0.87382961  0.62601457
   0.99949986  0.99810121  0.99914354
   0.00090550  0.25171706  0.24889043
   0.24615275  0.99964787  0.24990571
   0.25247424  0.25063912  0.99605592
   0.00126323  0.00315517  0.50082511
   0.00074740  0.24895746  0.74978078
   0.25000252  0.99787420  0.75396933
   0.25054019  0.24896384  0.49883149
   0.00337870  0.50041898  0.99890390
   0.00343196  0.74866747  0.24780974
   0.25222786  0.49757187  0.24923303
   0.24513016  0.74429987  0.00073935
   0.00147443  0.50609182  0.50106242
   0.00014889  0.74961771  0.74708503
   0.24744885  0.49983692  0.75162531
   0.25124260  0.74807988  0.49920295
   0.50412076  0.00599456  0.99571243
   0.50182886  0.24984631  0.24726726
   0.75438539  0.00050566  0.25486039
   0.75016990  0.25296935  0.00057379
   0.50282733  0.00012548  0.50075645
   0.50104191  0.24685977  0.74883370
   0.74995513  0.00373573  0.75297875
   0.75044315  0.24904098  0.50209637
   0.50264506  0.50151421  0.00123549
   0.49886546  0.75351512  0.24955406
   0.74930369  0.49583551  0.24605573
   0.74876795  0.75262952  0.99892295
   0.49863269  0.49933539  0.49869028
   0.49953736  0.75142291  0.74741570
   0.75171130  0.50207717  0.75008128
   0.74927686  0.74973185  0.49701201
