       N       E                     dE             d eps       ncg     rms          rms(c)
DAV:   1     0.670296357885E+03    0.67030E+03   -0.99562E+04  4704   0.111E+03
DAV:   2    -0.461764463885E+03   -0.11321E+04   -0.10722E+04  5816   0.221E+02
DAV:   3    -0.537154386636E+03   -0.75390E+02   -0.74684E+02  5680   0.562E+01
DAV:   4    -0.538830159757E+03   -0.16758E+01   -0.16687E+01  5728   0.908E+00
DAV:   5    -0.538876172063E+03   -0.46012E-01   -0.45938E-01  5568   0.143E+00    0.493E+01
DAV:   6    -0.481940585126E+03    0.56936E+02   -0.19079E+02  5352   0.235E+01    0.219E+01
DAV:   7    -0.480595072400E+03    0.13455E+01   -0.15952E+01  5848   0.711E+00    0.977E+00
DAV:   8    -0.480364554877E+03    0.23052E+00   -0.10334E+00  5424   0.199E+00    0.271E+00
DAV:   9    -0.480348044516E+03    0.16510E-01   -0.14852E-01  5496   0.843E-01    0.446E-01
DAV:  10    -0.480350813061E+03   -0.27685E-02   -0.13636E-02  5728   0.264E-01    0.249E-01
DAV:  11    -0.480351959029E+03   -0.11460E-02   -0.21870E-03  5232   0.119E-01    0.940E-02
DAV:  12    -0.480352027876E+03   -0.68847E-04   -0.34724E-04  6136   0.464E-02    0.417E-02
DAV:  13    -0.480352041995E+03   -0.14118E-04   -0.10287E-04  5144   0.236E-02    0.105E-02
DAV:  14    -0.480352047350E+03   -0.53552E-05   -0.62262E-06  5592   0.581E-03    0.529E-03
DAV:  15    -0.480352049031E+03   -0.16808E-05   -0.22124E-06  5672   0.335E-03    0.379E-03
DAV:  16    -0.480352048878E+03    0.15250E-06   -0.32122E-07  5800   0.148E-03    0.122E-03
DAV:  17    -0.480352049245E+03   -0.36692E-06   -0.96947E-08  5216   0.679E-04    0.692E-04
DAV:  18    -0.480352049255E+03   -0.10335E-07   -0.54398E-09  2752   0.212E-04    0.255E-04
DAV:  19    -0.480352049245E+03    0.10023E-07   -0.79223E-09  2704   0.198E-04    0.114E-04
DAV:  20    -0.480352049252E+03   -0.68721E-08   -0.10467E-09  2688   0.977E-05
   1 F= -.48035205E+03 E0= -.48035536E+03  d E =0.992638E-02
