unknown system                          
           1
     8.743316    0.000000    0.000000
     0.000000    8.743316    0.000000
     0.000000    0.000000    8.743316
   C    Si
    32    32
Direct configuration=     1
   0.12236385  0.12139333  0.12612198
   0.12878513  0.37269915  0.38036912
   0.37289243  0.12927007  0.37141356
   0.37634215  0.37749789  0.12770898
   0.12988448  0.12432351  0.62944553
   0.12079523  0.37948828  0.87339423
   0.37002196  0.12347040  0.88004889
   0.37722314  0.37490519  0.61997086
   0.12493876  0.62955228  0.12147327
   0.11912968  0.87841480  0.37609883
   0.37318990  0.62100936  0.37242797
   0.38104134  0.87673485  0.12568572
   0.12150268  0.62385871  0.62913617
   0.12534167  0.87402254  0.87294333
   0.37393631  0.62594992  0.87473591
   0.37314946  0.87929030  0.63040193
   0.62763403  0.12836373  0.12757565
   0.62962693  0.37315701  0.37800248
   0.87827821  0.11975683  0.37879147
   0.87196198  0.37328477  0.11949431
   0.62180328  0.12604862  0.62553169
   0.62302055  0.37786802  0.87271313
   0.87215709  0.12476855  0.87510884
   0.86676817  0.37479661  0.61990008
   0.62456931  0.62661242  0.12229877
   0.62513242  0.87710297  0.37663855
   0.88200751  0.62618801  0.37683037
   0.88036366  0.87042482  0.12831536
   0.62326118  0.62790953  0.62361108
   0.62968774  0.87369865  0.87552162
   0.87795439  0.62679271  0.87399839
   0.87735499  0.86852719  0.62425179
   0.00139637  0.00156851  0.99899077
   0.00248493  0.24664686  0.25162607
   0.25377030  0.00305595  0.25205663
   0.24664461  0.25019259  0.00090621
   0.99657512  0.99956199  0.49524870
   0.99974754  0.25123307  0.74250845
   0.24734651  0.00171585  0.74898360
   0.25409513  0.24943671  0.50159555
   0.99910154  0.50201711  0.00072661
   0.99995141  0.74753712  0.25175420
   0.24693129  0.50232326  0.24593021
   0.25473052  0.75072549  0.00008347
   0.99775793  0.50280843  0.50279564
   0.99971888  0.74448316  0.75610835
   0.24915085  0.50456884  0.75202411
   0.24586498  0.74833397  0.50056449
   0.50638673  0.00090525  0.00025418
   0.49483373  0.25308783  0.25317399
   0.74418209  0.99934744  0.24660532
   0.75304473  0.24290648  0.00119481
   0.49701270  0.99814777  0.50368168
   0.49769102  0.25249120  0.74911773
   0.74612499  0.00132147  0.75525298
   0.74880662  0.24980513  0.50502773
   0.49985694  0.50169757  0.99613729
   0.50736679  0.74669968  0.25466347
   0.75033804  0.49800124  0.25362095
   0.75242013  0.74786070  0.00376871
   0.50108645  0.49386350  0.50304412
   0.49673924  0.75423604  0.74815646
   0.75236603  0.49884233  0.74682628
   0.74934393  0.74754784  0.49836087
