       N       E                     dE             d eps       ncg     rms          rms(c)
DAV:   1     0.670138802975E+03    0.67014E+03   -0.99573E+04  4704   0.111E+03
DAV:   2    -0.461382801422E+03   -0.11315E+04   -0.10698E+04  5808   0.221E+02
DAV:   3    -0.536947992479E+03   -0.75565E+02   -0.74855E+02  5656   0.562E+01
DAV:   4    -0.538632151578E+03   -0.16842E+01   -0.16768E+01  5696   0.908E+00
DAV:   5    -0.538679700544E+03   -0.47549E-01   -0.47471E-01  5576   0.144E+00    0.494E+01
DAV:   6    -0.481563686780E+03    0.57116E+02   -0.19125E+02  5368   0.236E+01    0.219E+01
DAV:   7    -0.480229458637E+03    0.13342E+01   -0.16049E+01  5856   0.714E+00    0.979E+00
DAV:   8    -0.479997437312E+03    0.23202E+00   -0.10477E+00  5400   0.201E+00    0.273E+00
DAV:   9    -0.479980636824E+03    0.16800E-01   -0.15479E-01  5488   0.864E-01    0.459E-01
DAV:  10    -0.479983155055E+03   -0.25182E-02   -0.14608E-02  5848   0.279E-01    0.262E-01
DAV:  11    -0.479984438557E+03   -0.12835E-02   -0.26351E-03  5216   0.127E-01    0.104E-01
DAV:  12    -0.479984526975E+03   -0.88418E-04   -0.40997E-04  6256   0.511E-02    0.463E-02
DAV:  13    -0.479984546152E+03   -0.19177E-04   -0.14950E-04  5104   0.272E-02    0.105E-02
DAV:  14    -0.479984549986E+03   -0.38343E-05   -0.61037E-06  5680   0.600E-03    0.522E-03
DAV:  15    -0.479984551834E+03   -0.18473E-05   -0.27317E-06  5536   0.371E-03    0.339E-03
DAV:  16    -0.479984551868E+03   -0.34695E-07   -0.39114E-07  5888   0.166E-03    0.129E-03
DAV:  17    -0.479984552302E+03   -0.43360E-06   -0.13160E-07  5208   0.800E-04    0.743E-04
DAV:  18    -0.479984552321E+03   -0.19583E-07   -0.76712E-09  2776   0.246E-04    0.314E-04
DAV:  19    -0.479984552298E+03    0.23065E-07   -0.11332E-08  2696   0.239E-04    0.128E-04
DAV:  20    -0.479984552302E+03   -0.34488E-08   -0.16379E-09  2688   0.119E-04
   1 F= -.47998455E+03 E0= -.47998812E+03  d E =0.107079E-01
