unknown system                          
           1
     8.743316    0.000000    0.000000
     0.000000    8.743316    0.000000
     0.000000    0.000000    8.743316
   C    Si
    32    32
Direct configuration=     1
   0.12638513  0.12124970  0.13055770
   0.12307283  0.37802486  0.37704239
   0.37284634  0.12139001  0.37502253
   0.37127018  0.37707963  0.12718755
   0.12238239  0.12581493  0.62681213
   0.11809867  0.37059138  0.87639306
   0.37599114  0.12422849  0.87192647
   0.37998533  0.36890954  0.62465077
   0.12586688  0.62232872  0.12099901
   0.12385553  0.88035852  0.37750453
   0.37506402  0.62217394  0.37422573
   0.37937929  0.87758836  0.11867111
   0.11894424  0.62785587  0.62661883
   0.12148712  0.87636172  0.87838357
   0.37385207  0.61962017  0.87572764
   0.37380331  0.87542758  0.62056585
   0.62492661  0.13000632  0.12438595
   0.62335549  0.38060285  0.37122920
   0.88039664  0.12685764  0.37401421
   0.88013661  0.38064239  0.12347287
   0.62134729  0.12235953  0.62404262
   0.62428833  0.37098429  0.87707135
   0.87114525  0.12444105  0.87776734
   0.87240443  0.37916729  0.62502784
   0.62947032  0.62331152  0.12165878
   0.62892184  0.87391182  0.37736724
   0.86965684  0.62411064  0.37678500
   0.87850604  0.88174884  0.12466345
   0.62689999  0.62129795  0.62179487
   0.62650494  0.88309201  0.87748846
   0.87120442  0.63110855  0.87326044
   0.87548137  0.87728788  0.61995625
   0.99917502  0.99954924  0.99414281
   0.00881899  0.24970020  0.25312215
   0.24694903  0.00200119  0.25431427
   0.24318813  0.24627078  0.00532049
   0.99770096  0.99726243  0.50388562
   0.00323201  0.25420832  0.74954627
   0.25363634  0.00062854  0.75238610
   0.25300504  0.24564792  0.50025970
   0.00214376  0.49633303  0.00051386
   0.99824585  0.75250907  0.25082946
   0.24794940  0.49771654  0.24984923
   0.24715808  0.74960963  0.00174555
   0.00079737  0.48965683  0.50226483
   0.00040414  0.74843963  0.75151558
   0.24777245  0.49792846  0.74896161
   0.25115139  0.73803955  0.50143868
   0.49816413  0.00504196  0.99346175
   0.49949225  0.25327378  0.24673962
   0.75243792  0.00050102  0.25146819
   0.75063823  0.24977071  0.00147743
   0.50103461  0.99816603  0.49523415
   0.50051705  0.25993874  0.74592010
   0.74397126  0.99899831  0.74898918
   0.75098546  0.25373143  0.50502252
   0.49969346  0.50144026  0.99833353
   0.49694587  0.75039291  0.24938376
   0.74523198  0.50346151  0.24742937
   0.74897705  0.75327484  0.99950049
   0.49928650  0.49952344  0.49726110
   0.49749608  0.74174341  0.75249334
   0.75325910  0.50198704  0.74940021
   0.74730427  0.75031270  0.50076888
