       N       E                     dE             d eps       ncg     rms          rms(c)
DAV:   1     0.673333131597E+03    0.67333E+03   -0.99595E+04  4704   0.111E+03
DAV:   2    -0.459508834697E+03   -0.11328E+04   -0.10745E+04  5832   0.221E+02
DAV:   3    -0.535054308079E+03   -0.75545E+02   -0.74825E+02  5688   0.564E+01
DAV:   4    -0.536739568796E+03   -0.16853E+01   -0.16781E+01  5712   0.912E+00
DAV:   5    -0.536786924434E+03   -0.47356E-01   -0.47274E-01  5592   0.145E+00    0.497E+01
DAV:   6    -0.478897044556E+03    0.57890E+02   -0.19295E+02  5336   0.238E+01    0.221E+01
DAV:   7    -0.477592703346E+03    0.13043E+01   -0.16732E+01  5880   0.737E+00    0.987E+00
DAV:   8    -0.477355781740E+03    0.23692E+00   -0.11132E+00  5440   0.210E+00    0.294E+00
DAV:   9    -0.477338132933E+03    0.17649E-01   -0.17762E-01  5496   0.948E-01    0.502E-01
DAV:  10    -0.477340411104E+03   -0.22782E-02   -0.19259E-02  5616   0.324E-01    0.285E-01
DAV:  11    -0.477341682016E+03   -0.12709E-02   -0.31183E-03  5424   0.143E-01    0.131E-01
DAV:  12    -0.477341946964E+03   -0.26495E-03   -0.63069E-04  5328   0.626E-02    0.463E-02
DAV:  13    -0.477341973544E+03   -0.26581E-04   -0.14553E-04  5536   0.277E-02    0.125E-02
DAV:  14    -0.477341975534E+03   -0.19898E-05   -0.74213E-06  5704   0.709E-03    0.711E-03
DAV:  15    -0.477341977648E+03   -0.21137E-05   -0.44387E-06  5504   0.464E-03    0.349E-03
DAV:  16    -0.477341978207E+03   -0.55895E-06   -0.45301E-07  5432   0.169E-03    0.114E-03
DAV:  17    -0.477341978548E+03   -0.34138E-06   -0.95194E-08  5336   0.700E-04    0.688E-04
DAV:  18    -0.477341978581E+03   -0.32425E-07   -0.52165E-09  2816   0.215E-04    0.223E-04
DAV:  19    -0.477341978573E+03    0.79453E-08   -0.44618E-09  2736   0.171E-04
   1 F= -.47734198E+03 E0= -.47734576E+03  d E =0.113532E-01
