<?xml version="1.0" encoding="ISO-8859-1"?>
<modeling>
 <generator>
  <i name="program" type="string">vasp </i>
  <i name="version" type="string">6.2.1  </i>
  <i name="subversion" type="string">16May21 (build Jun 06 2020 10:27:25) complex                          parallel </i>
  <i name="platform" type="string">LinuxIFC </i>
  <i name="date" type="string">2024 01 25 </i>
  <i name="time" type="string">16:49:59 </i>
 </generator>
 <incar>
  <i type="int" name="NELM">    60</i>
  <i type="int" name="IBRION">     1</i>
  <i name="EDIFF">      0.00000001</i>
  <i type="int" name="NSW">     0</i>
  <i type="int" name="ISIF">     3</i>
  <i type="int" name="ISYM">     0</i>
  <i type="logical" name="LWAVE"> F  </i>
  <i type="logical" name="LCHARG"> F  </i>
  <i type="string" name="GGA">PE</i>
 </incar>
 <primitive_cell>
  <structure name="primitive_cell" >
   <crystal>
    <varray name="basis" >
     <v>       8.74331558       0.00000000       0.00000000 </v>
     <v>       0.00000000       8.74331558       0.00000000 </v>
     <v>       0.00000000       0.00000000       8.74331558 </v>
    </varray>
    <i name="volume">    668.38771987 </i>
    <varray name="rec_basis" >
     <v>       0.11437309       0.00000000       0.00000000 </v>
     <v>       0.00000000       0.11437309       0.00000000 </v>
     <v>       0.00000000       0.00000000       0.11437309 </v>
    </varray>
   </crystal>
   <varray name="positions" >
    <v>       0.11883216       0.12649571       0.12489568 </v>
    <v>       0.11770393       0.37041755       0.36762243 </v>
    <v>       0.37872850       0.12102655       0.36673085 </v>
    <v>       0.37578044       0.37748231       0.11875414 </v>
    <v>       0.12911494       0.13081763       0.63094491 </v>
    <v>       0.12825617       0.37419297       0.87218582 </v>
    <v>       0.36928332       0.12402025       0.87772144 </v>
    <v>       0.38128843       0.37391135       0.62530518 </v>
    <v>       0.12102541       0.61829640       0.12463532 </v>
    <v>       0.12497142       0.87529446       0.37005070 </v>
    <v>       0.37588984       0.62434219       0.36769116 </v>
    <v>       0.37653863       0.88089585       0.12274367 </v>
    <v>       0.12038323       0.62183200       0.62483055 </v>
    <v>       0.12864314       0.87821043       0.88315701 </v>
    <v>       0.37443702       0.62457600       0.87994366 </v>
    <v>       0.36657035       0.87524740       0.62152222 </v>
    <v>       0.63063836       0.12025364       0.12946815 </v>
    <v>       0.62066277       0.37069441       0.37372639 </v>
    <v>       0.86334177       0.12319973       0.38138113 </v>
    <v>       0.87502583       0.37311578       0.12708098 </v>
    <v>       0.62245719       0.12326470       0.62098192 </v>
    <v>       0.62080342       0.37569682       0.87372806 </v>
    <v>       0.87518509       0.11824036       0.87602198 </v>
    <v>       0.87963063       0.37504246       0.62276018 </v>
    <v>       0.62012934       0.62824673       0.13048119 </v>
    <v>       0.62871062       0.87055977       0.37306021 </v>
    <v>       0.87222631       0.62783400       0.36803032 </v>
    <v>       0.86963587       0.87209026       0.13299342 </v>
    <v>       0.61818464       0.62766523       0.62184453 </v>
    <v>       0.62582477       0.87421887       0.87834530 </v>
    <v>       0.88194116       0.61485399       0.88019460 </v>
    <v>       0.89108475       0.87683305       0.61197061 </v>
    <v>       0.99575220       0.99766094       0.99734648 </v>
    <v>       0.00926989       0.24886154       0.25344192 </v>
    <v>       0.24657720       0.00052854       0.24477059 </v>
    <v>       0.25283031       0.24626668       0.99609573 </v>
    <v>       0.00110438       0.99235309       0.50085106 </v>
    <v>       0.99430055       0.25229377       0.75333243 </v>
    <v>       0.24949653       0.00808157       0.75257539 </v>
    <v>       0.26760591       0.24223201       0.49745721 </v>
    <v>       0.99390663       0.50257451       0.99580466 </v>
    <v>       0.00723007       0.75594771       0.25328120 </v>
    <v>       0.25177430       0.49285685       0.25027265 </v>
    <v>       0.24656460       0.75278401       0.00520017 </v>
    <v>       0.99470869       0.50333573       0.49590694 </v>
    <v>       0.00431358       0.75647830       0.74754625 </v>
    <v>       0.25749943       0.49750509       0.74826344 </v>
    <v>       0.24591855       0.75617795       0.50052662 </v>
    <v>       0.49288835       0.00537314       0.99970832 </v>
    <v>       0.50127132       0.24985377       0.24796478 </v>
    <v>       0.75830777       0.00079433       0.23982955 </v>
    <v>       0.75846755       0.25594047       0.01602089 </v>
    <v>       0.50269305       0.99444574       0.49739611 </v>
    <v>       0.49976690       0.25116665       0.74949167 </v>
    <v>       0.74633410       0.00576040       0.74509659 </v>
    <v>       0.75163276       0.25638907       0.49797339 </v>
    <v>       0.49693962       0.49127134       0.00182439 </v>
    <v>       0.50012909       0.74412570       0.25031133 </v>
    <v>       0.74173010       0.50466748       0.25177613 </v>
    <v>       0.75623120       0.75118898       0.00087094 </v>
    <v>       0.49814953       0.50356582       0.49598007 </v>
    <v>       0.49766582       0.74102852       0.75472346 </v>
    <v>       0.74048400       0.50293208       0.76149961 </v>
    <v>       0.75635530       0.75295894       0.50187402 </v>
   </varray>
  </structure>
  <varray name="primitive_index" >
   <v type="int" >        1 </v>
   <v type="int" >        2 </v>
   <v type="int" >        3 </v>
   <v type="int" >        4 </v>
   <v type="int" >        5 </v>
   <v type="int" >        6 </v>
   <v type="int" >        7 </v>
   <v type="int" >        8 </v>
   <v type="int" >        9 </v>
   <v type="int" >       10 </v>
   <v type="int" >       11 </v>
   <v type="int" >       12 </v>
   <v type="int" >       13 </v>
   <v type="int" >       14 </v>
   <v type="int" >       15 </v>
   <v type="int" >       16 </v>
   <v type="int" >       17 </v>
   <v type="int" >       18 </v>
   <v type="int" >       19 </v>
   <v type="int" >       20 </v>
   <v type="int" >       21 </v>
   <v type="int" >       22 </v>
   <v type="int" >       23 </v>
   <v type="int" >       24 </v>
   <v type="int" >       25 </v>
   <v type="int" >       26 </v>
   <v type="int" >       27 </v>
   <v type="int" >       28 </v>
   <v type="int" >       29 </v>
   <v type="int" >       30 </v>
   <v type="int" >       31 </v>
   <v type="int" >       32 </v>
   <v type="int" >       33 </v>
   <v type="int" >       34 </v>
   <v type="int" >       35 </v>
   <v type="int" >       36 </v>
   <v type="int" >       37 </v>
   <v type="int" >       38 </v>
   <v type="int" >       39 </v>
   <v type="int" >       40 </v>
   <v type="int" >       41 </v>
   <v type="int" >       42 </v>
   <v type="int" >       43 </v>
   <v type="int" >       44 </v>
   <v type="int" >       45 </v>
   <v type="int" >       46 </v>
   <v type="int" >       47 </v>
   <v type="int" >       48 </v>
   <v type="int" >       49 </v>
   <v type="int" >       50 </v>
   <v type="int" >       51 </v>
   <v type="int" >       52 </v>
   <v type="int" >       53 </v>
   <v type="int" >       54 </v>
   <v type="int" >       55 </v>
   <v type="int" >       56 </v>
   <v type="int" >       57 </v>
   <v type="int" >       58 </v>
   <v type="int" >       59 </v>
   <v type="int" >       60 </v>
   <v type="int" >       61 </v>
   <v type="int" >       62 </v>
   <v type="int" >       63 </v>
   <v type="int" >       64 </v>
  </varray>
 </primitive_cell>
 <kpoints>
  <generation param="Monkhorst-Pack">
   <v type="int" name="divisions">       3        3        3 </v>
   <v name="usershift">      0.00000000       0.00000000       0.00000000 </v>
   <v name="genvec1">      0.33333333       0.00000000       0.00000000 </v>
   <v name="genvec2">      0.00000000       0.33333333       0.00000000 </v>
   <v name="genvec3">      0.00000000       0.00000000       0.33333333 </v>
   <v name="shift">      0.00000000       0.00000000       0.00000000 </v>
  </generation>
  <varray name="kpointlist" >
   <v>       0.00000000       0.00000000       0.00000000 </v>
   <v>       0.33333333       0.00000000       0.00000000 </v>
   <v>       0.00000000       0.33333333       0.00000000 </v>
   <v>       0.00000000       0.00000000       0.33333333 </v>
   <v>       0.33333333       0.33333333       0.00000000 </v>
   <v>       0.00000000       0.33333333       0.33333333 </v>
   <v>       0.33333333       0.00000000       0.33333333 </v>
   <v>      -0.33333333       0.33333333       0.00000000 </v>
   <v>      -0.33333333       0.00000000       0.33333333 </v>
   <v>       0.00000000      -0.33333333       0.33333333 </v>
   <v>       0.33333333       0.33333333       0.33333333 </v>
   <v>      -0.33333333       0.33333333       0.33333333 </v>
   <v>      -0.33333333      -0.33333333       0.33333333 </v>
   <v>       0.33333333      -0.33333333       0.33333333 </v>
  </varray>
  <varray name="weights" >
   <v>       0.03703704 </v>
   <v>       0.07407407 </v>
   <v>       0.07407407 </v>
   <v>       0.07407407 </v>
   <v>       0.07407407 </v>
   <v>       0.07407407 </v>
   <v>       0.07407407 </v>
   <v>       0.07407407 </v>
   <v>       0.07407407 </v>
   <v>       0.07407407 </v>
   <v>       0.07407407 </v>
   <v>       0.07407407 </v>
   <v>       0.07407407 </v>
   <v>       0.07407407 </v>
  </varray>
 </kpoints>
 <parameters>
  <separator name="general" >
   <i type="string" name="SYSTEM">unknown system</i>
   <i type="logical" name="LCOMPAT"> F  </i>
  </separator>
  <separator name="electronic" >
   <i type="string" name="PREC">normal</i>
   <i name="ENMAX">    400.00000000</i>
   <i name="ENAUG">    644.87300000</i>
   <i name="EDIFF">      0.00000001</i>
   <i type="int" name="IALGO">    38</i>
   <i type="int" name="IWAVPR">    10</i>
   <i type="int" name="NBANDS">   168</i>
   <i type="int" name="NBANDSLOW">    -1</i>
   <i type="int" name="NBANDSHIGH">    -1</i>
   <i name="NELECT">    256.00000000</i>
   <i type="int" name="TURBO">     0</i>
   <i type="int" name="IRESTART">     0</i>
   <i type="int" name="NREBOOT">     0</i>
   <i type="int" name="NMIN">     0</i>
   <i name="EREF">      0.00000000</i>
   <separator name="electronic smearing" >
    <i type="int" name="ISMEAR">     1</i>
    <i name="SIGMA">      0.20000000</i>
    <i name="KSPACING">      0.50000000</i>
    <i type="logical" name="KGAMMA"> T  </i>
    <i type="logical" name="KBLOWUP"> T  </i>
   </separator>
   <separator name="electronic projectors" >
    <i type="logical" name="LREAL"> F  </i>
    <v name="ROPT">      0.00000000      0.00000000</v>
    <i type="int" name="LMAXPAW">  -100</i>
    <i type="int" name="LMAXMIX">     2</i>
    <i type="logical" name="NLSPLINE"> F  </i>
   </separator>
   <separator name="electronic startup" >
    <i type="int" name="ISTART">     0</i>
    <i type="int" name="ICHARG">     2</i>
    <i type="int" name="INIWAV">     1</i>
   </separator>
   <separator name="electronic spin" >
    <i type="int" name="ISPIN">     1</i>
    <i type="logical" name="LNONCOLLINEAR"> F  </i>
    <v name="MAGMOM">      1.00000000      1.00000000      1.00000000      1.00000000      1.00000000      1.00000000      1.00000000      1.00000000      1.00000000      1.00000000      1.00000000      1.00000000      1.00000000      1.00000000      1.00000000      1.00000000      1.00000000      1.00000000      1.00000000      1.00000000
      1.00000000      1.00000000      1.00000000      1.00000000      1.00000000      1.00000000      1.00000000      1.00000000      1.00000000      1.00000000      1.00000000      1.00000000      1.00000000      1.00000000      1.00000000      1.00000000      1.00000000      1.00000000      1.00000000      1.00000000
      1.00000000      1.00000000      1.00000000      1.00000000      1.00000000      1.00000000      1.00000000      1.00000000      1.00000000      1.00000000      1.00000000      1.00000000      1.00000000      1.00000000      1.00000000      1.00000000      1.00000000      1.00000000      1.00000000      1.00000000
      1.00000000      1.00000000      1.00000000      1.00000000</v>
    <i name="NUPDOWN">     -1.00000000</i>
    <i type="logical" name="LSORBIT"> F  </i>
    <v name="SAXIS">      0.00000000      0.00000000      1.00000000</v>
    <i type="logical" name="LSPIRAL"> F  </i>
    <v name="QSPIRAL">      0.00000000      0.00000000      0.00000000</v>
    <i type="logical" name="LZEROZ"> F  </i>
   </separator>
   <separator name="electronic exchange-correlation" >
    <i type="logical" name="LASPH"> F  </i>
    <i type="logical" name="LMETAGGA"> F  </i>
   </separator>
   <separator name="electronic convergence" >
    <i type="int" name="NELM">    60</i>
    <i type="int" name="NELMDL">    -5</i>
    <i type="int" name="NELMIN">     2</i>
    <i name="ENINI">    400.00000000</i>
    <separator name="electronic convergence detail" >
     <i type="logical" name="LDIAG"> T  </i>
     <i type="logical" name="LSUBROT"> F  </i>
     <i name="WEIMIN">      0.00000000</i>
     <i name="EBREAK">      0.00000000</i>
     <i name="DEPER">      0.30000000</i>
     <i type="int" name="NRMM">     4</i>
     <i name="TIME">      0.40000000</i>
    </separator>
   </separator>
   <separator name="electronic mixer" >
    <i name="AMIX">      0.40000000</i>
    <i name="BMIX">      1.00000000</i>
    <i name="AMIN">      0.10000000</i>
    <i name="AMIX_MAG">      1.60000000</i>
    <i name="BMIX_MAG">      1.00000000</i>
    <separator name="electronic mixer details" >
     <i type="int" name="IMIX">     4</i>
     <i type="logical" name="MIXFIRST"> F  </i>
     <i type="int" name="MAXMIX">   -45</i>
     <i name="WC">    100.00000000</i>
     <i type="int" name="INIMIX">     1</i>
     <i type="int" name="MIXPRE">     1</i>
     <i type="int" name="MREMOVE">     5</i>
    </separator>
   </separator>
   <separator name="electronic dipolcorrection" >
    <i type="logical" name="LDIPOL"> F  </i>
    <i type="logical" name="LMONO"> F  </i>
    <i type="int" name="IDIPOL">     0</i>
    <i name="EPSILON">      1.00000000</i>
    <v name="DIPOL">   -100.00000000   -100.00000000   -100.00000000</v>
    <i name="EFIELD">      0.00000000</i>
   </separator>
  </separator>
  <separator name="grids" >
   <i type="int" name="NGX">    48</i>
   <i type="int" name="NGY">    48</i>
   <i type="int" name="NGZ">    48</i>
   <i type="int" name="NGXF">    96</i>
   <i type="int" name="NGYF">    96</i>
   <i type="int" name="NGZF">    96</i>
   <i type="logical" name="ADDGRID"> F  </i>
  </separator>
  <separator name="ionic" >
   <i type="int" name="NSW">     0</i>
   <i type="int" name="IBRION">    -1</i>
   <i type="int" name="MDALGO">     0</i>
   <i type="int" name="ISIF">     3</i>
   <i name="PSTRESS">      0.00000000</i>
   <i name="EDIFFG">      0.00000010</i>
   <i type="int" name="NFREE">     0</i>
   <i name="POTIM">      0.50000000</i>
   <i name="SMASS">     -3.00000000</i>
   <i name="SCALEE">      1.00000000</i>
  </separator>
  <separator name="ionic md" >
   <i name="TEBEG">      0.00010000</i>
   <i name="TEEND">      0.00010000</i>
   <i type="int" name="NBLOCK">     1</i>
   <i type="int" name="KBLOCK">     1</i>
   <i type="int" name="NPACO">   256</i>
   <i name="APACO">     16.00000000</i>
  </separator>
  <separator name="symmetry" >
   <i type="int" name="ISYM">     0</i>
   <i name="SYMPREC">      0.00001000</i>
  </separator>
  <separator name="dos" >
   <i type="int" name="LORBIT">     0</i>
   <v name="RWIGS">     -1.00000000     -1.00000000</v>
   <i type="int" name="NEDOS">   301</i>
   <i name="EMIN">     10.00000000</i>
   <i name="EMAX">    -10.00000000</i>
   <i name="EFERMI">      0.00000000</i>
  </separator>
  <separator name="writing" >
   <i type="int" name="NWRITE">     2</i>
   <i type="logical" name="LWAVE"> F  </i>
   <i type="logical" name="LDOWNSAMPLE"> F  </i>
   <i type="logical" name="LCHARG"> F  </i>
   <i type="logical" name="LPARD"> F  </i>
   <i type="logical" name="LVTOT"> F  </i>
   <i type="logical" name="LVHAR"> F  </i>
   <i type="logical" name="LELF"> F  </i>
   <i type="logical" name="LOPTICS"> F  </i>
   <v name="STM">      0.00000000      0.00000000      0.00000000      0.00000000      0.00000000      0.00000000      0.00000000</v>
  </separator>
  <separator name="performance" >
   <i type="int" name="NPAR">     8</i>
   <i type="int" name="NSIM">     4</i>
   <i type="int" name="NBLK">    -1</i>
   <i type="logical" name="LPLANE"> T  </i>
   <i type="logical" name="LSCALAPACK"> T  </i>
   <i type="logical" name="LSCAAWARE"> F  </i>
   <i type="logical" name="LSCALU"> F  </i>
   <i type="logical" name="LASYNC"> F  </i>
   <i type="logical" name="LORBITALREAL"> F  </i>
  </separator>
  <separator name="miscellaneous" >
   <i type="int" name="IDIOT">     3</i>
   <i type="int" name="PHON_NSTRUCT">    -1</i>
   <i type="logical" name="LMUSIC"> F  </i>
   <v name="POMASS">     12.01100000     28.08500000</v>
   <v name="DARWINR">      0.00000000      0.00000000</v>
   <v name="DARWINV">      1.00000000      1.00000000</v>
   <i type="logical" name="LCORR"> T  </i>
  </separator>
  <i type="logical" name="GGA_COMPAT"> T  </i>
  <i type="logical" name="LBERRY"> F  </i>
  <i type="int" name="ICORELEVEL">     0</i>
  <i type="logical" name="LDAU"> F  </i>
  <i type="int" name="I_CONSTRAINED_M">     0</i>
  <separator name="electronic exchange-correlation" >
   <i type="string" name="GGA">PE</i>
   <i type="int" name="VOSKOWN">     0</i>
   <i type="logical" name="LHFCALC"> F  </i>
   <i type="string" name="PRECFOCK"></i>
   <i type="logical" name="LSYMGRAD"> F  </i>
   <i type="logical" name="LHFONE"> F  </i>
   <i type="logical" name="LRHFCALC"> F  </i>
   <i type="logical" name="LTHOMAS"> F  </i>
   <i type="logical" name="LMODELHF"> F  </i>
   <i type="logical" name="LFOCKACE"> F  </i>
   <i name="ENCUT4O">     -1.00000000</i>
   <i type="int" name="EXXOEP">     0</i>
   <i type="int" name="FOURORBIT">     0</i>
   <i name="AEXX">      0.00000000</i>
   <i name="HFALPHA">      0.00000000</i>
   <i name="MCALPHA">      0.00000000</i>
   <i name="ALDAX">      1.00000000</i>
   <i name="AGGAX">      1.00000000</i>
   <i name="ALDAC">      1.00000000</i>
   <i name="AGGAC">      1.00000000</i>
   <i type="int" name="NKREDX">     1</i>
   <i type="int" name="NKREDY">     1</i>
   <i type="int" name="NKREDZ">     1</i>
   <i type="logical" name="SHIFTRED"> F  </i>
   <i type="logical" name="ODDONLY"> F  </i>
   <i type="logical" name="EVENONLY"> F  </i>
   <i type="int" name="LMAXFOCK">     0</i>
   <i type="int" name="NMAXFOCKAE">     0</i>
   <i type="logical" name="LFOCKAEDFT"> F  </i>
   <i name="HFSCREEN">      0.00000000</i>
   <i name="HFSCREENC">      0.00000000</i>
   <i type="int" name="NBANDSGWLOW">     0</i>
  </separator>
  <separator name="vdW DFT" >
   <i type="logical" name="LUSE_VDW"> F  </i>
   <i name="Zab_VDW">     -0.84910000</i>
   <i name="PARAM1">      0.12340000</i>
   <i name="PARAM2">      1.00000000</i>
   <i name="PARAM3">      0.00000000</i>
  </separator>
  <separator name="model GW" >
   <i type="int" name="MODEL_GW">     0</i>
   <i name="MODEL_EPS0">      6.26613487</i>
   <i name="MODEL_ALPHA">      1.00000000</i>
  </separator>
  <separator name="linear response parameters" >
   <i type="logical" name="LEPSILON"> F  </i>
   <i type="logical" name="LRPA"> F  </i>
   <i type="logical" name="LNABLA"> F  </i>
   <i type="logical" name="LVEL"> F  </i>
   <i type="int" name="KINTER">     0</i>
   <i name="CSHIFT">      0.10000000</i>
   <i name="OMEGAMAX">     -1.00000000</i>
   <i name="DEG_THRESHOLD">      0.00200000</i>
   <i name="RTIME">     -0.10000000</i>
   <i name="WPLASMAI">      0.00000000</i>
   <v name="DFIELD">      0.00000000      0.00000000      0.00000000</v>
   <v name="WPLASMA">      0.00000000      0.00000000      0.00000000      0.00000000      0.00000000      0.00000000      0.00000000      0.00000000      0.00000000</v>
  </separator>
  <separator name="orbital magnetization" >
   <i type="logical" name="NUCIND"> F  </i>
   <v name="MAGPOS">      0.00000000      0.00000000      0.00000000</v>
   <i type="logical" name="LNICSALL"> T  </i>
   <i type="logical" name="ORBITALMAG"> F  </i>
   <i type="logical" name="LMAGBLOCH"> F  </i>
   <i type="logical" name="LCHIMAG"> F  </i>
   <i type="logical" name="LGAUGE"> T  </i>
   <i type="int" name="MAGATOM">     0</i>
   <v name="MAGDIPOL">      0.00000000      0.00000000      0.00000000</v>
   <v name="AVECCONST">      0.00000000      0.00000000      0.00000000</v>
  </separator>
  <separator name="response functions" >
   <i type="logical" name="LFINITE_TEMPERATURE"> F  </i>
   <i type="logical" name="LADDER"> F  </i>
   <i type="logical" name="LRPAFORCE"> F  </i>
   <i type="logical" name="LFXC"> F  </i>
   <i type="logical" name="LHARTREE"> T  </i>
   <i type="int" name="IBSE">     0</i>
   <v type="int" name="KPOINT">    -1     0     0     0</v>
   <i type="logical" name="LTCTC"> F  </i>
   <i type="logical" name="LTCTE"> F  </i>
   <i type="logical" name="LTETE"> F  </i>
   <i type="logical" name="LTRIPLET"> F  </i>
   <i type="logical" name="LFXCEPS"> F  </i>
   <i type="logical" name="LFXHEG"> F  </i>
   <i type="int" name="NATURALO">     2</i>
   <i type="logical" name="LHOLEGF"> F  </i>
   <i type="logical" name="L2ORDER"> F  </i>
   <i type="logical" name="LDMP1"> F  </i>
   <i type="logical" name="LMP2LT"> F  </i>
   <i type="logical" name="LSMP2LT"> F  </i>
   <i type="logical" name="LGWLF"> F  </i>
   <i name="ENCUTGW">     -2.00000000</i>
   <i name="ENCUTGWSOFT">     -2.00000000</i>
   <i name="ENCUTLF">     -1.00000000</i>
   <i type="logical" name="LESF_SPLINES"> F  </i>
   <i type="int" name="LMAXMP2">    -1</i>
   <i name="SCISSOR">      0.00000000</i>
   <i type="int" name="NOMEGA">     0</i>
   <i type="int" name="NOMEGAR">     0</i>
   <i type="int" name="NBANDSGW">    -1</i>
   <i type="int" name="NBANDSO">    -1</i>
   <i type="int" name="NBANDSV">    -1</i>
   <i type="int" name="NELM">    60</i>
   <i type="int" name="NELMHF">     1</i>
   <i type="int" name="DIM">     3</i>
   <i type="int" name="IESPILON">     4</i>
   <i type="int" name="ANTIRES">     0</i>
   <i name="OMEGAMAX">    -30.00000000</i>
   <i name="OMEGAMIN">    -30.00000000</i>
   <i name="OMEGATL">   -200.00000000</i>
   <i type="int" name="OMEGAGRID">     0</i>
   <i name="CSHIFT">     -0.10000000</i>
   <i type="logical" name="LSELFENERGY"> F  </i>
   <i type="logical" name="LSPECTRAL"> F  </i>
   <i type="logical" name="LSPECTRALGW"> F  </i>
   <i type="logical" name="LSINGLES"> F  </i>
   <i type="logical" name="LFERMIGW"> F  </i>
   <i type="logical" name="ODDONLYGW"> F  </i>
   <i type="logical" name="EVENONLYGW"> F  </i>
   <i type="int" name="NKREDLFX">     1</i>
   <i type="int" name="NKREDLFY">     1</i>
   <i type="int" name="NKREDLFZ">     1</i>
   <i type="int" name="MAXMEM">  2800</i>
   <i type="int" name="TELESCOPE">     0</i>
   <i type="int" name="NTAUPAR">    -1</i>
   <i type="int" name="NOMEGAPAR">    -1</i>
   <i name="DAMP_NEWTON">      0.80000001</i>
   <i name="LAMBDA">      1.00000000</i>
  </separator>
  <separator name="External order field" >
   <i name="OFIELD_KAPPA">      0.00000000</i>
   <v name="OFIELD_K">      0.00000000      0.00000000      0.00000000</v>
   <i name="OFIELD_Q6_NEAR">      0.00000000</i>
   <i name="OFIELD_Q6_FAR">      0.00000000</i>
   <i name="OFIELD_A">      0.00000000</i>
  </separator>
 </parameters>
 <atominfo>
  <atoms>      64 </atoms>
  <types>       2 </types>
  <array name="atoms" >
   <dimension dim="1">ion</dimension>
   <field type="string">element</field>
   <field type="int">atomtype</field>
   <set>
    <rc><c>C </c><c>   1</c></rc>
    <rc><c>C </c><c>   1</c></rc>
    <rc><c>C </c><c>   1</c></rc>
    <rc><c>C </c><c>   1</c></rc>
    <rc><c>C </c><c>   1</c></rc>
    <rc><c>C </c><c>   1</c></rc>
    <rc><c>C </c><c>   1</c></rc>
    <rc><c>C </c><c>   1</c></rc>
    <rc><c>C </c><c>   1</c></rc>
    <rc><c>C </c><c>   1</c></rc>
    <rc><c>C </c><c>   1</c></rc>
    <rc><c>C </c><c>   1</c></rc>
    <rc><c>C </c><c>   1</c></rc>
    <rc><c>C </c><c>   1</c></rc>
    <rc><c>C </c><c>   1</c></rc>
    <rc><c>C </c><c>   1</c></rc>
    <rc><c>C </c><c>   1</c></rc>
    <rc><c>C </c><c>   1</c></rc>
    <rc><c>C </c><c>   1</c></rc>
    <rc><c>C </c><c>   1</c></rc>
    <rc><c>C </c><c>   1</c></rc>
    <rc><c>C </c><c>   1</c></rc>
    <rc><c>C </c><c>   1</c></rc>
    <rc><c>C </c><c>   1</c></rc>
    <rc><c>C </c><c>   1</c></rc>
    <rc><c>C </c><c>   1</c></rc>
    <rc><c>C </c><c>   1</c></rc>
    <rc><c>C </c><c>   1</c></rc>
    <rc><c>C </c><c>   1</c></rc>
    <rc><c>C </c><c>   1</c></rc>
    <rc><c>C </c><c>   1</c></rc>
    <rc><c>C </c><c>   1</c></rc>
    <rc><c>Si</c><c>   2</c></rc>
    <rc><c>Si</c><c>   2</c></rc>
    <rc><c>Si</c><c>   2</c></rc>
    <rc><c>Si</c><c>   2</c></rc>
    <rc><c>Si</c><c>   2</c></rc>
    <rc><c>Si</c><c>   2</c></rc>
    <rc><c>Si</c><c>   2</c></rc>
    <rc><c>Si</c><c>   2</c></rc>
    <rc><c>Si</c><c>   2</c></rc>
    <rc><c>Si</c><c>   2</c></rc>
    <rc><c>Si</c><c>   2</c></rc>
    <rc><c>Si</c><c>   2</c></rc>
    <rc><c>Si</c><c>   2</c></rc>
    <rc><c>Si</c><c>   2</c></rc>
    <rc><c>Si</c><c>   2</c></rc>
    <rc><c>Si</c><c>   2</c></rc>
    <rc><c>Si</c><c>   2</c></rc>
    <rc><c>Si</c><c>   2</c></rc>
    <rc><c>Si</c><c>   2</c></rc>
    <rc><c>Si</c><c>   2</c></rc>
    <rc><c>Si</c><c>   2</c></rc>
    <rc><c>Si</c><c>   2</c></rc>
    <rc><c>Si</c><c>   2</c></rc>
    <rc><c>Si</c><c>   2</c></rc>
    <rc><c>Si</c><c>   2</c></rc>
    <rc><c>Si</c><c>   2</c></rc>
    <rc><c>Si</c><c>   2</c></rc>
    <rc><c>Si</c><c>   2</c></rc>
    <rc><c>Si</c><c>   2</c></rc>
    <rc><c>Si</c><c>   2</c></rc>
    <rc><c>Si</c><c>   2</c></rc>
    <rc><c>Si</c><c>   2</c></rc>
   </set>
  </array>
  <array name="atomtypes" >
   <dimension dim="1">type</dimension>
   <field type="int">atomspertype</field>
   <field type="string">element</field>
   <field>mass</field>
   <field>valence</field>
   <field type="string">pseudopotential</field>
   <set>
    <rc><c>  32</c><c>C </c><c>     12.01100000</c><c>      4.00000000</c><c>  PAW_PBE C 08Apr2002                   </c></rc>
    <rc><c>  32</c><c>Si</c><c>     28.08500000</c><c>      4.00000000</c><c>  PAW_PBE Si 05Jan2001                  </c></rc>
   </set>
  </array>
 </atominfo>
 <structure name="initialpos" >
  <crystal>
   <varray name="basis" >
    <v>       8.74331558       0.00000000       0.00000000 </v>
    <v>       0.00000000       8.74331558       0.00000000 </v>
    <v>       0.00000000       0.00000000       8.74331558 </v>
   </varray>
   <i name="volume">    668.38771987 </i>
   <varray name="rec_basis" >
    <v>       0.11437309       0.00000000       0.00000000 </v>
    <v>       0.00000000       0.11437309       0.00000000 </v>
    <v>       0.00000000       0.00000000       0.11437309 </v>
   </varray>
  </crystal>
  <varray name="positions" >
   <v>       0.11883216       0.12649571       0.12489568 </v>
   <v>       0.11770393       0.37041755       0.36762243 </v>
   <v>       0.37872850       0.12102655       0.36673085 </v>
   <v>       0.37578044       0.37748231       0.11875414 </v>
   <v>       0.12911494       0.13081763       0.63094491 </v>
   <v>       0.12825617       0.37419297       0.87218582 </v>
   <v>       0.36928332       0.12402025       0.87772144 </v>
   <v>       0.38128843       0.37391135       0.62530518 </v>
   <v>       0.12102541       0.61829640       0.12463532 </v>
   <v>       0.12497142       0.87529446       0.37005070 </v>
   <v>       0.37588984       0.62434219       0.36769116 </v>
   <v>       0.37653863       0.88089585       0.12274367 </v>
   <v>       0.12038323       0.62183200       0.62483055 </v>
   <v>       0.12864314       0.87821043       0.88315701 </v>
   <v>       0.37443702       0.62457600       0.87994366 </v>
   <v>       0.36657035       0.87524740       0.62152222 </v>
   <v>       0.63063836       0.12025364       0.12946815 </v>
   <v>       0.62066277       0.37069441       0.37372639 </v>
   <v>       0.86334177       0.12319973       0.38138113 </v>
   <v>       0.87502583       0.37311578       0.12708098 </v>
   <v>       0.62245719       0.12326470       0.62098192 </v>
   <v>       0.62080342       0.37569682       0.87372806 </v>
   <v>       0.87518509       0.11824036       0.87602198 </v>
   <v>       0.87963063       0.37504246       0.62276018 </v>
   <v>       0.62012934       0.62824673       0.13048119 </v>
   <v>       0.62871062       0.87055977       0.37306021 </v>
   <v>       0.87222631       0.62783400       0.36803032 </v>
   <v>       0.86963587       0.87209026       0.13299342 </v>
   <v>       0.61818464       0.62766523       0.62184453 </v>
   <v>       0.62582477       0.87421887       0.87834530 </v>
   <v>       0.88194116       0.61485399       0.88019460 </v>
   <v>       0.89108475       0.87683305       0.61197061 </v>
   <v>       0.99575220       0.99766094       0.99734648 </v>
   <v>       0.00926989       0.24886154       0.25344192 </v>
   <v>       0.24657720       0.00052854       0.24477059 </v>
   <v>       0.25283031       0.24626668       0.99609573 </v>
   <v>       0.00110438       0.99235309       0.50085106 </v>
   <v>       0.99430055       0.25229377       0.75333243 </v>
   <v>       0.24949653       0.00808157       0.75257539 </v>
   <v>       0.26760591       0.24223201       0.49745721 </v>
   <v>       0.99390663       0.50257451       0.99580466 </v>
   <v>       0.00723007       0.75594771       0.25328120 </v>
   <v>       0.25177430       0.49285685       0.25027265 </v>
   <v>       0.24656460       0.75278401       0.00520017 </v>
   <v>       0.99470869       0.50333573       0.49590694 </v>
   <v>       0.00431358       0.75647830       0.74754625 </v>
   <v>       0.25749943       0.49750509       0.74826344 </v>
   <v>       0.24591855       0.75617795       0.50052662 </v>
   <v>       0.49288835       0.00537314       0.99970832 </v>
   <v>       0.50127132       0.24985377       0.24796478 </v>
   <v>       0.75830777       0.00079433       0.23982955 </v>
   <v>       0.75846755       0.25594047       0.01602089 </v>
   <v>       0.50269305       0.99444574       0.49739611 </v>
   <v>       0.49976690       0.25116665       0.74949167 </v>
   <v>       0.74633410       0.00576040       0.74509659 </v>
   <v>       0.75163276       0.25638907       0.49797339 </v>
   <v>       0.49693962       0.49127134       0.00182439 </v>
   <v>       0.50012909       0.74412570       0.25031133 </v>
   <v>       0.74173010       0.50466748       0.25177613 </v>
   <v>       0.75623120       0.75118898       0.00087094 </v>
   <v>       0.49814953       0.50356582       0.49598007 </v>
   <v>       0.49766582       0.74102852       0.75472346 </v>
   <v>       0.74048400       0.50293208       0.76149961 </v>
   <v>       0.75635530       0.75295894       0.50187402 </v>
  </varray>
 </structure>
 <calculation>
  <scstep>
   <time name="dav">   23.37   23.46</time>
   <time name="total">   23.68   23.77</time>
   <energy>
    <i name="alphaZ">    354.85177120 </i>
    <i name="ewald">  -9065.55193077 </i>
    <i name="hartreedc">   -679.66234617 </i>
    <i name="XCdc">    145.98280686 </i>
    <i name="pawpsdc">   6292.66707184 </i>
    <i name="pawaedc">  -5747.90303932 </i>
    <i name="eentropy">     -0.00166692 </i>
    <i name="bandstr">   1366.77542168 </i>
    <i name="atom">   8006.17504320 </i>
    <i name="e_fr_energy">    673.33313160 </i>
    <i name="e_wo_entrp">    673.33479852 </i>
    <i name="e_0_energy">    673.33368724 </i>
   </energy>
  </scstep>
  <scstep>
   <time name="dav">   16.75   16.85</time>
   <time name="total">   16.76   16.86</time>
   <energy>
    <i name="e_fr_energy">   -459.50883470 </i>
    <i name="e_wo_entrp">   -459.52217905 </i>
    <i name="e_0_energy">   -459.51328281 </i>
   </energy>
  </scstep>
  <scstep>
   <time name="dav">   15.82   15.86</time>
   <time name="total">   15.83   15.86</time>
   <energy>
    <i name="e_fr_energy">   -535.05430808 </i>
    <i name="e_wo_entrp">   -535.07918678 </i>
    <i name="e_0_energy">   -535.06260098 </i>
   </energy>
  </scstep>
  <scstep>
   <time name="dav">   16.79   16.92</time>
   <time name="total">   16.80   16.93</time>
   <energy>
    <i name="e_fr_energy">   -536.73956880 </i>
    <i name="e_wo_entrp">   -536.76464504 </i>
    <i name="e_0_energy">   -536.74792754 </i>
   </energy>
  </scstep>
  <scstep>
   <time name="dav">   15.73   15.84</time>
   <time name="total">   15.99   16.09</time>
   <energy>
    <i name="e_fr_energy">   -536.78692443 </i>
    <i name="e_wo_entrp">   -536.81198480 </i>
    <i name="e_0_energy">   -536.79527789 </i>
   </energy>
  </scstep>
  <scstep>
   <time name="dav">   15.42   15.52</time>
   <time name="total">   15.76   15.89</time>
   <energy>
    <i name="e_fr_energy">   -478.89704456 </i>
    <i name="e_wo_entrp">   -478.90989470 </i>
    <i name="e_0_energy">   -478.90132794 </i>
   </energy>
  </scstep>
  <scstep>
   <time name="dav">   16.61   16.72</time>
   <time name="total">   16.95   17.06</time>
   <energy>
    <i name="e_fr_energy">   -477.59270335 </i>
    <i name="e_wo_entrp">   -477.60403669 </i>
    <i name="e_0_energy">   -477.59648113 </i>
   </energy>
  </scstep>
  <scstep>
   <time name="dav">   15.72   15.76</time>
   <time name="total">   16.32   16.38</time>
   <energy>
    <i name="e_fr_energy">   -477.35578174 </i>
    <i name="e_wo_entrp">   -477.36718137 </i>
    <i name="e_0_energy">   -477.35958162 </i>
   </energy>
  </scstep>
  <scstep>
   <time name="dav">   15.83   15.87</time>
   <time name="total">   16.17   16.21</time>
   <energy>
    <i name="e_fr_energy">   -477.33813293 </i>
    <i name="e_wo_entrp">   -477.34945730 </i>
    <i name="e_0_energy">   -477.34190772 </i>
   </energy>
  </scstep>
  <scstep>
   <time name="dav">   16.15   16.18</time>
   <time name="total">   16.60   16.67</time>
   <energy>
    <i name="e_fr_energy">   -477.34041110 </i>
    <i name="e_wo_entrp">   -477.35178801 </i>
    <i name="e_0_energy">   -477.34420341 </i>
   </energy>
  </scstep>
  <scstep>
   <time name="dav">   15.78   15.82</time>
   <time name="total">   16.12   16.16</time>
   <energy>
    <i name="e_fr_energy">   -477.34168202 </i>
    <i name="e_wo_entrp">   -477.35303942 </i>
    <i name="e_0_energy">   -477.34546782 </i>
   </energy>
  </scstep>
  <scstep>
   <time name="dav">   15.34   15.44</time>
   <time name="total">   15.69   15.84</time>
   <energy>
    <i name="e_fr_energy">   -477.34194696 </i>
    <i name="e_wo_entrp">   -477.35329804 </i>
    <i name="e_0_energy">   -477.34573066 </i>
   </energy>
  </scstep>
  <scstep>
   <time name="dav">   15.81   15.92</time>
   <time name="total">   16.15   16.26</time>
   <energy>
    <i name="e_fr_energy">   -477.34197354 </i>
    <i name="e_wo_entrp">   -477.35332764 </i>
    <i name="e_0_energy">   -477.34575824 </i>
   </energy>
  </scstep>
  <scstep>
   <time name="dav">   16.10   16.21</time>
   <time name="total">   16.46   16.63</time>
   <energy>
    <i name="e_fr_energy">   -477.34197553 </i>
    <i name="e_wo_entrp">   -477.35332873 </i>
    <i name="e_0_energy">   -477.34575993 </i>
   </energy>
  </scstep>
  <scstep>
   <time name="dav">   15.66   15.76</time>
   <time name="total">   15.99   16.10</time>
   <energy>
    <i name="e_fr_energy">   -477.34197765 </i>
    <i name="e_wo_entrp">   -477.35333081 </i>
    <i name="e_0_energy">   -477.34576203 </i>
   </energy>
  </scstep>
  <scstep>
   <time name="dav">   19.18   19.29</time>
   <time name="total">   19.80   19.95</time>
   <energy>
    <i name="e_fr_energy">   -477.34197821 </i>
    <i name="e_wo_entrp">   -477.35333153 </i>
    <i name="e_0_energy">   -477.34576265 </i>
   </energy>
  </scstep>
  <scstep>
   <time name="dav">   15.22   15.32</time>
   <time name="total">   15.55   15.66</time>
   <energy>
    <i name="e_fr_energy">   -477.34197855 </i>
    <i name="e_wo_entrp">   -477.35333177 </i>
    <i name="e_0_energy">   -477.34576296 </i>
   </energy>
  </scstep>
  <scstep>
   <time name="dav">   10.40   10.47</time>
   <time name="total">   11.01   11.11</time>
   <energy>
    <i name="e_fr_energy">   -477.34197858 </i>
    <i name="e_wo_entrp">   -477.35333176 </i>
    <i name="e_0_energy">   -477.34576297 </i>
   </energy>
  </scstep>
  <scstep>
   <time name="dav">    9.47    9.54</time>
   <time name="total">    9.54    9.60</time>
   <energy>
    <i name="alphaZ">    354.85177120 </i>
    <i name="ewald">  -9065.55193077 </i>
    <i name="hartreedc">  -1034.52606973 </i>
    <i name="XCdc">    179.49382409 </i>
    <i name="pawpsdc">  33394.41518551 </i>
    <i name="pawaedc"> -32855.47824186 </i>
    <i name="eentropy">      0.01135318 </i>
    <i name="bandstr">    543.26708661 </i>
    <i name="atom">   8006.17504320 </i>
    <i name="e_fr_energy">   -477.34197857 </i>
    <i name="e_wo_entrp">   -477.35333175 </i>
    <i name="e_0_energy">   -477.34576297 </i>
   </energy>
  </scstep>
  <structure>
   <crystal>
    <varray name="basis" >
     <v>       8.74331558       0.00000000       0.00000000 </v>
     <v>       0.00000000       8.74331558       0.00000000 </v>
     <v>       0.00000000       0.00000000       8.74331558 </v>
    </varray>
    <i name="volume">    668.38771987 </i>
    <varray name="rec_basis" >
     <v>       0.11437309       0.00000000       0.00000000 </v>
     <v>       0.00000000       0.11437309       0.00000000 </v>
     <v>       0.00000000       0.00000000       0.11437309 </v>
    </varray>
   </crystal>
   <varray name="positions" >
    <v>       0.11883216       0.12649571       0.12489568 </v>
    <v>       0.11770393       0.37041755       0.36762243 </v>
    <v>       0.37872850       0.12102655       0.36673085 </v>
    <v>       0.37578044       0.37748231       0.11875414 </v>
    <v>       0.12911494       0.13081763       0.63094491 </v>
    <v>       0.12825617       0.37419297       0.87218582 </v>
    <v>       0.36928332       0.12402025       0.87772144 </v>
    <v>       0.38128843       0.37391135       0.62530518 </v>
    <v>       0.12102541       0.61829640       0.12463532 </v>
    <v>       0.12497142       0.87529446       0.37005070 </v>
    <v>       0.37588984       0.62434219       0.36769116 </v>
    <v>       0.37653863       0.88089585       0.12274367 </v>
    <v>       0.12038323       0.62183200       0.62483055 </v>
    <v>       0.12864314       0.87821043       0.88315701 </v>
    <v>       0.37443702       0.62457600       0.87994366 </v>
    <v>       0.36657035       0.87524740       0.62152222 </v>
    <v>       0.63063836       0.12025364       0.12946815 </v>
    <v>       0.62066277       0.37069441       0.37372639 </v>
    <v>       0.86334177       0.12319973       0.38138113 </v>
    <v>       0.87502583       0.37311578       0.12708098 </v>
    <v>       0.62245719       0.12326470       0.62098192 </v>
    <v>       0.62080342       0.37569682       0.87372806 </v>
    <v>       0.87518509       0.11824036       0.87602198 </v>
    <v>       0.87963063       0.37504246       0.62276018 </v>
    <v>       0.62012934       0.62824673       0.13048119 </v>
    <v>       0.62871062       0.87055977       0.37306021 </v>
    <v>       0.87222631       0.62783400       0.36803032 </v>
    <v>       0.86963587       0.87209026       0.13299342 </v>
    <v>       0.61818464       0.62766523       0.62184453 </v>
    <v>       0.62582477       0.87421887       0.87834530 </v>
    <v>       0.88194116       0.61485399       0.88019460 </v>
    <v>       0.89108475       0.87683305       0.61197061 </v>
    <v>       0.99575220       0.99766094       0.99734648 </v>
    <v>       0.00926989       0.24886154       0.25344192 </v>
    <v>       0.24657720       0.00052854       0.24477059 </v>
    <v>       0.25283031       0.24626668       0.99609573 </v>
    <v>       0.00110438       0.99235309       0.50085106 </v>
    <v>       0.99430055       0.25229377       0.75333243 </v>
    <v>       0.24949653       0.00808157       0.75257539 </v>
    <v>       0.26760591       0.24223201       0.49745721 </v>
    <v>       0.99390663       0.50257451       0.99580466 </v>
    <v>       0.00723007       0.75594771       0.25328120 </v>
    <v>       0.25177430       0.49285685       0.25027265 </v>
    <v>       0.24656460       0.75278401       0.00520017 </v>
    <v>       0.99470869       0.50333573       0.49590694 </v>
    <v>       0.00431358       0.75647830       0.74754625 </v>
    <v>       0.25749943       0.49750509       0.74826344 </v>
    <v>       0.24591855       0.75617795       0.50052662 </v>
    <v>       0.49288835       0.00537314       0.99970832 </v>
    <v>       0.50127132       0.24985377       0.24796478 </v>
    <v>       0.75830777       0.00079433       0.23982955 </v>
    <v>       0.75846755       0.25594047       0.01602089 </v>
    <v>       0.50269305       0.99444574       0.49739611 </v>
    <v>       0.49976690       0.25116665       0.74949167 </v>
    <v>       0.74633410       0.00576040       0.74509659 </v>
    <v>       0.75163276       0.25638907       0.49797339 </v>
    <v>       0.49693962       0.49127134       0.00182439 </v>
    <v>       0.50012909       0.74412570       0.25031133 </v>
    <v>       0.74173010       0.50466748       0.25177613 </v>
    <v>       0.75623120       0.75118898       0.00087094 </v>
    <v>       0.49814953       0.50356582       0.49598007 </v>
    <v>       0.49766582       0.74102852       0.75472346 </v>
    <v>       0.74048400       0.50293208       0.76149961 </v>
    <v>       0.75635530       0.75295894       0.50187402 </v>
   </varray>
  </structure>
  <varray name="forces" >
   <v>       0.99677467      -0.63043819      -0.67042369 </v>
   <v>       2.94377051       1.38390887       2.44094296 </v>
   <v>      -0.02980919      -0.16201235       0.50875384 </v>
   <v>      -0.50964125      -2.05466052       1.38744483 </v>
   <v>      -0.47956919      -0.68496714      -1.32503508 </v>
   <v>      -0.51290091       0.13695300       0.51077654 </v>
   <v>       1.73562636       0.58395434      -0.80250209 </v>
   <v>      -0.23413179       0.39559956      -0.75389143 </v>
   <v>       0.63908259       1.26741922       0.38587624 </v>
   <v>       0.73656334       0.81962510       0.77039624 </v>
   <v>      -1.23676335      -0.18630167       1.36007725 </v>
   <v>      -0.58029638      -1.17033258       0.72941899 </v>
   <v>       1.19294138       0.58532081      -0.34073610 </v>
   <v>      -0.70812162      -0.22188325      -1.40943145 </v>
   <v>      -0.30424801      -0.45358066      -0.15143172 </v>
   <v>       1.31411397       0.43156816       1.30116954 </v>
   <v>      -1.28471426       1.43724093      -1.39319142 </v>
   <v>       0.34138059       1.36945902       0.27263901 </v>
   <v>       2.70884795      -0.19884859      -1.24491499 </v>
   <v>       0.98931456       1.73467908       1.19613902 </v>
   <v>      -0.06669281       0.83240522       0.37687080 </v>
   <v>       0.58598572      -0.98422152       1.39197774 </v>
   <v>      -0.73195594       1.60310282      -0.22117859 </v>
   <v>      -1.78872778       0.64245020       0.72115168 </v>
   <v>       0.79681179      -1.24013050      -2.11019611 </v>
   <v>      -0.13370741       0.41741237       0.03335158 </v>
   <v>       0.45466292      -0.13755150       1.18548768 </v>
   <v>       2.53407078      -0.26607713      -2.09523438 </v>
   <v>       1.56226537      -0.17197639       0.77310999 </v>
   <v>      -0.08068622       0.09862197      -1.03078086 </v>
   <v>      -2.65152715       3.64541128      -2.22121484 </v>
   <v>      -3.50168241      -1.78955618       3.80688116 </v>
   <v>       0.32536638       0.02156862       1.13997302 </v>
   <v>      -3.28630117      -0.94587972      -0.62422601 </v>
   <v>       0.50632414       0.14262137       0.12807940 </v>
   <v>      -1.71022230       1.23816727       0.88124640 </v>
   <v>       1.68711379       4.09954256      -1.79894339 </v>
   <v>       1.34471121      -0.28706859      -0.51001985 </v>
   <v>      -0.42022697      -1.57322600      -0.55316148 </v>
   <v>      -2.92402286       0.96804254       0.40924528 </v>
   <v>       2.82093223      -2.48903358       2.10248410 </v>
   <v>      -1.64134615      -2.09163848      -1.31520968 </v>
   <v>      -1.03533848       0.79308982      -0.54192387 </v>
   <v>       0.63465856      -0.98690214      -0.08002360 </v>
   <v>       0.61623457      -0.62615495      -0.03925753 </v>
   <v>       0.21143682      -1.24883104       0.78418912 </v>
   <v>      -1.58580290       0.36948826       0.25003222 </v>
   <v>       0.17579892      -1.73158887      -0.51133885 </v>
   <v>       2.10093197      -0.83822520       0.21306565 </v>
   <v>       0.17643591      -0.53023195      -0.44229146 </v>
   <v>      -2.01578479      -0.01159639       3.33476187 </v>
   <v>      -2.05303163      -2.20610854      -2.91970257 </v>
   <v>      -0.18671302      -0.15543838      -0.45182257 </v>
   <v>       0.37713178      -0.88538059       0.13237560 </v>
   <v>       0.62273895      -1.20519527       0.56202609 </v>
   <v>      -0.59588223      -0.86000268       0.58136502 </v>
   <v>       0.83391837       2.47237083      -0.42313952 </v>
   <v>      -0.08723372       2.20474286       0.00323677 </v>
   <v>       1.02770315      -0.78179591      -0.32415142 </v>
   <v>      -1.23809138      -0.70582879       0.40429873 </v>
   <v>       0.31208412      -0.58083346       0.09711854 </v>
   <v>      -0.17976309       2.02564311      -0.49317233 </v>
   <v>       1.46894556      -0.16434188      -2.45417162 </v>
   <v>      -0.97974258      -0.46256863      -0.92324438 </v>
  </varray>
  <varray name="stress" >
   <v>      15.97313906       3.13036147       7.31231616 </v>
   <v>       3.13036151      20.99336842       3.88965306 </v>
   <v>       7.31231615       3.88965310      18.07617941 </v>
  </varray>
  <energy>
   <i name="e_fr_energy">   -477.34197857 </i>
   <i name="e_wo_entrp">   -477.35333175 </i>
   <i name="e_0_energy">   -477.34576297 </i>
  </energy>
  <time name="totalsc">  319.07  320.97</time>
  <eigenvalues>
   <array>
    <dimension dim="1">band</dimension>
    <dimension dim="2">kpoint</dimension>
    <dimension dim="3">spin</dimension>
    <field>eigene</field>
    <field>occ</field>
    <set>
     <set comment="spin 1">
      <set comment="kpoint 1">
       <r>   -7.3819    1.0000 </r>
       <r>   -6.0531    1.0000 </r>
       <r>   -5.8854    1.0000 </r>
       <r>   -5.8248    1.0000 </r>
       <r>   -5.7964    1.0000 </r>
       <r>   -5.6773    1.0000 </r>
       <r>   -5.5623    1.0000 </r>
       <r>   -4.7174    1.0000 </r>
       <r>   -4.6510    1.0000 </r>
       <r>   -4.5889    1.0000 </r>
       <r>   -4.5102    1.0000 </r>
       <r>   -4.4387    1.0000 </r>
       <r>   -4.3593    1.0000 </r>
       <r>   -4.3199    1.0000 </r>
       <r>   -4.2938    1.0000 </r>
       <r>   -4.2871    1.0000 </r>
       <r>   -4.1730    1.0000 </r>
       <r>   -4.1264    1.0000 </r>
       <r>   -4.0322    1.0000 </r>
       <r>   -3.9300    1.0000 </r>
       <r>   -3.8377    1.0000 </r>
       <r>   -3.7718    1.0000 </r>
       <r>   -3.6851    1.0000 </r>
       <r>   -2.4784    1.0000 </r>
       <r>   -2.4356    1.0000 </r>
       <r>   -2.3442    1.0000 </r>
       <r>   -2.2894    1.0000 </r>
       <r>   -2.2435    1.0000 </r>
       <r>   -2.1289    1.0000 </r>
       <r>   -2.1008    1.0000 </r>
       <r>   -2.0423    1.0000 </r>
       <r>   -1.9118    1.0000 </r>
       <r>   -0.5928    1.0000 </r>
       <r>   -0.5406    1.0000 </r>
       <r>   -0.4462    1.0000 </r>
       <r>   -0.4233    1.0000 </r>
       <r>    0.1735    1.0000 </r>
       <r>    0.2027    1.0000 </r>
       <r>    0.2576    1.0000 </r>
       <r>    0.8564    1.0000 </r>
       <r>    0.9318    1.0000 </r>
       <r>    0.9682    1.0000 </r>
       <r>    0.9919    1.0000 </r>
       <r>    1.0354    1.0000 </r>
       <r>    1.0425    1.0000 </r>
       <r>    1.7734    1.0000 </r>
       <r>    1.8514    1.0000 </r>
       <r>    1.9014    1.0000 </r>
       <r>    1.9610    1.0000 </r>
       <r>    1.9789    1.0000 </r>
       <r>    2.0145    1.0000 </r>
       <r>    2.0724    1.0000 </r>
       <r>    2.0977    1.0000 </r>
       <r>    2.1645    1.0000 </r>
       <r>    2.2302    1.0000 </r>
       <r>    2.2509    1.0000 </r>
       <r>    2.3412    1.0000 </r>
       <r>    2.8324    1.0000 </r>
       <r>    2.9396    1.0000 </r>
       <r>    3.0222    1.0000 </r>
       <r>    3.0273    1.0000 </r>
       <r>    3.0705    1.0000 </r>
       <r>    3.1550    1.0000 </r>
       <r>    3.2148    1.0000 </r>
       <r>    3.2780    1.0000 </r>
       <r>    3.3009    1.0000 </r>
       <r>    3.3572    1.0000 </r>
       <r>    3.3748    1.0000 </r>
       <r>    3.4205    1.0000 </r>
       <r>    3.5119    1.0000 </r>
       <r>    3.5631    1.0000 </r>
       <r>    3.5671    1.0000 </r>
       <r>    3.6240    1.0000 </r>
       <r>    3.6680    1.0000 </r>
       <r>    3.6699    1.0000 </r>
       <r>    3.7234    1.0000 </r>
       <r>    3.7427    1.0000 </r>
       <r>    3.7575    1.0000 </r>
       <r>    3.7995    1.0000 </r>
       <r>    3.8443    1.0000 </r>
       <r>    3.8850    1.0000 </r>
       <r>    4.5035    1.0000 </r>
       <r>    4.5600    1.0000 </r>
       <r>    4.5730    1.0000 </r>
       <r>    4.6562    1.0000 </r>
       <r>    4.6693    1.0000 </r>
       <r>    4.7224    1.0000 </r>
       <r>    4.7725    1.0000 </r>
       <r>    4.8423    1.0000 </r>
       <r>    4.8710    1.0000 </r>
       <r>    4.8779    1.0000 </r>
       <r>    4.9179    1.0000 </r>
       <r>    4.9586    1.0000 </r>
       <r>    5.7723    1.0000 </r>
       <r>    5.8796    1.0000 </r>
       <r>    5.9459    1.0000 </r>
       <r>    5.9648    1.0000 </r>
       <r>    5.9994    1.0000 </r>
       <r>    6.0386    1.0000 </r>
       <r>    6.0759    1.0000 </r>
       <r>    6.1099    1.0000 </r>
       <r>    6.1460    1.0000 </r>
       <r>    6.2246    1.0000 </r>
       <r>    6.2547    1.0000 </r>
       <r>    6.3319    1.0000 </r>
       <r>    6.5491    1.0000 </r>
       <r>    6.6120    1.0000 </r>
       <r>    6.6422    1.0000 </r>
       <r>    6.6855    1.0000 </r>
       <r>    6.7392    1.0000 </r>
       <r>    6.7796    1.0000 </r>
       <r>    6.7980    1.0000 </r>
       <r>    6.8376    1.0000 </r>
       <r>    6.8589    1.0000 </r>
       <r>    6.9201    1.0000 </r>
       <r>    6.9399    1.0000 </r>
       <r>    6.9654    1.0000 </r>
       <r>    6.9818    1.0000 </r>
       <r>    7.0079    1.0000 </r>
       <r>    7.0695    1.0000 </r>
       <r>    7.1125    1.0000 </r>
       <r>    7.1366    1.0000 </r>
       <r>    7.1511    1.0000 </r>
       <r>    7.2071    1.0000 </r>
       <r>    7.2200    1.0000 </r>
       <r>    7.9847    1.0352 </r>
       <r>    8.0997    0.9245 </r>
       <r>    8.1361    0.8281 </r>
       <r>    9.2372   -0.0000 </r>
       <r>    9.3544   -0.0000 </r>
       <r>    9.4314   -0.0000 </r>
       <r>   11.7868   -0.0000 </r>
       <r>   11.8163   -0.0000 </r>
       <r>   11.9139   -0.0000 </r>
       <r>   11.9473   -0.0000 </r>
       <r>   12.0477   -0.0000 </r>
       <r>   12.1179   -0.0000 </r>
       <r>   12.1784   -0.0000 </r>
       <r>   12.2279   -0.0000 </r>
       <r>   12.2588   -0.0000 </r>
       <r>   12.7967   -0.0000 </r>
       <r>   12.9202   -0.0000 </r>
       <r>   13.0190   -0.0000 </r>
       <r>   13.0476   -0.0000 </r>
       <r>   13.1125   -0.0000 </r>
       <r>   13.1571   -0.0000 </r>
       <r>   13.1660   -0.0000 </r>
       <r>   13.1971   -0.0000 </r>
       <r>   13.2261   -0.0000 </r>
       <r>   13.2602   -0.0000 </r>
       <r>   13.2795   -0.0000 </r>
       <r>   13.3190   -0.0000 </r>
       <r>   13.3445   -0.0000 </r>
       <r>   13.4238   -0.0000 </r>
       <r>   13.4554   -0.0000 </r>
       <r>   13.5016   -0.0000 </r>
       <r>   13.5275   -0.0000 </r>
       <r>   13.5682   -0.0000 </r>
       <r>   13.5952   -0.0000 </r>
       <r>   13.6639   -0.0000 </r>
       <r>   13.6908    0.0000 </r>
       <r>   13.7789    0.0000 </r>
       <r>   14.0265    0.0000 </r>
       <r>   14.0917    0.0000 </r>
       <r>   14.1749    0.0000 </r>
       <r>   14.2233    0.0000 </r>
       <r>   14.2297    0.0000 </r>
       <r>   14.3362    0.0000 </r>
      </set>
      <set comment="kpoint 2">
       <r>   -7.2067    1.0000 </r>
       <r>   -6.6857    1.0000 </r>
       <r>   -5.7445    1.0000 </r>
       <r>   -5.6571    1.0000 </r>
       <r>   -5.6402    1.0000 </r>
       <r>   -5.5528    1.0000 </r>
       <r>   -5.2446    1.0000 </r>
       <r>   -5.1779    1.0000 </r>
       <r>   -5.1395    1.0000 </r>
       <r>   -5.0667    1.0000 </r>
       <r>   -4.5949    1.0000 </r>
       <r>   -4.3794    1.0000 </r>
       <r>   -4.3314    1.0000 </r>
       <r>   -4.2493    1.0000 </r>
       <r>   -4.1690    1.0000 </r>
       <r>   -4.0917    1.0000 </r>
       <r>   -4.0094    1.0000 </r>
       <r>   -3.9318    1.0000 </r>
       <r>   -3.8520    1.0000 </r>
       <r>   -3.5200    1.0000 </r>
       <r>   -3.4458    1.0000 </r>
       <r>   -3.3915    1.0000 </r>
       <r>   -3.3237    1.0000 </r>
       <r>   -3.1575    1.0000 </r>
       <r>   -2.6585    1.0000 </r>
       <r>   -2.5687    1.0000 </r>
       <r>   -2.5343    1.0000 </r>
       <r>   -2.4536    1.0000 </r>
       <r>   -2.3738    1.0000 </r>
       <r>   -2.2223    1.0000 </r>
       <r>   -2.1826    1.0000 </r>
       <r>   -2.0586    1.0000 </r>
       <r>   -0.1411    1.0000 </r>
       <r>   -0.0860    1.0000 </r>
       <r>   -0.0040    1.0000 </r>
       <r>    0.0235    1.0000 </r>
       <r>    0.3074    1.0000 </r>
       <r>    0.3816    1.0000 </r>
       <r>    0.6359    1.0000 </r>
       <r>    0.7273    1.0000 </r>
       <r>    0.9095    1.0000 </r>
       <r>    0.9506    1.0000 </r>
       <r>    0.9888    1.0000 </r>
       <r>    1.0166    1.0000 </r>
       <r>    1.0534    1.0000 </r>
       <r>    1.1004    1.0000 </r>
       <r>    1.1379    1.0000 </r>
       <r>    1.1842    1.0000 </r>
       <r>    1.2487    1.0000 </r>
       <r>    1.3469    1.0000 </r>
       <r>    1.4277    1.0000 </r>
       <r>    1.4941    1.0000 </r>
       <r>    1.5371    1.0000 </r>
       <r>    2.6077    1.0000 </r>
       <r>    2.6431    1.0000 </r>
       <r>    2.6740    1.0000 </r>
       <r>    2.7155    1.0000 </r>
       <r>    2.8161    1.0000 </r>
       <r>    2.8873    1.0000 </r>
       <r>    2.9106    1.0000 </r>
       <r>    2.9450    1.0000 </r>
       <r>    2.9629    1.0000 </r>
       <r>    3.0138    1.0000 </r>
       <r>    3.0494    1.0000 </r>
       <r>    3.0646    1.0000 </r>
       <r>    3.1195    1.0000 </r>
       <r>    3.4770    1.0000 </r>
       <r>    3.5135    1.0000 </r>
       <r>    3.6306    1.0000 </r>
       <r>    3.6589    1.0000 </r>
       <r>    3.9228    1.0000 </r>
       <r>    3.9977    1.0000 </r>
       <r>    4.0159    1.0000 </r>
       <r>    4.0737    1.0000 </r>
       <r>    4.2707    1.0000 </r>
       <r>    4.3051    1.0000 </r>
       <r>    4.3549    1.0000 </r>
       <r>    4.3729    1.0000 </r>
       <r>    4.3881    1.0000 </r>
       <r>    4.4209    1.0000 </r>
       <r>    4.4588    1.0000 </r>
       <r>    4.4849    1.0000 </r>
       <r>    4.5706    1.0000 </r>
       <r>    4.6045    1.0000 </r>
       <r>    4.6235    1.0000 </r>
       <r>    4.7070    1.0000 </r>
       <r>    4.7879    1.0000 </r>
       <r>    4.8347    1.0000 </r>
       <r>    4.8715    1.0000 </r>
       <r>    4.9295    1.0000 </r>
       <r>    4.9855    1.0000 </r>
       <r>    5.0685    1.0000 </r>
       <r>    5.3059    1.0000 </r>
       <r>    5.4005    1.0000 </r>
       <r>    5.5702    1.0000 </r>
       <r>    5.5867    1.0000 </r>
       <r>    5.6281    1.0000 </r>
       <r>    5.6804    1.0000 </r>
       <r>    5.8216    1.0000 </r>
       <r>    5.8625    1.0000 </r>
       <r>    5.9139    1.0000 </r>
       <r>    5.9284    1.0000 </r>
       <r>    6.1206    1.0000 </r>
       <r>    6.1999    1.0000 </r>
       <r>    6.2712    1.0000 </r>
       <r>    6.2881    1.0000 </r>
       <r>    6.3727    1.0000 </r>
       <r>    6.4201    1.0000 </r>
       <r>    6.4843    1.0000 </r>
       <r>    6.5452    1.0000 </r>
       <r>    6.5710    1.0000 </r>
       <r>    6.6947    1.0000 </r>
       <r>    6.7275    1.0000 </r>
       <r>    6.7691    1.0000 </r>
       <r>    6.8017    1.0000 </r>
       <r>    6.8546    1.0000 </r>
       <r>    6.9004    1.0000 </r>
       <r>    6.9340    1.0000 </r>
       <r>    6.9596    1.0000 </r>
       <r>    7.0285    1.0000 </r>
       <r>    7.0616    1.0000 </r>
       <r>    7.0779    1.0000 </r>
       <r>    7.0971    1.0000 </r>
       <r>    7.1593    1.0000 </r>
       <r>    7.2221    1.0000 </r>
       <r>    7.5208    1.0000 </r>
       <r>    7.7244    1.0012 </r>
       <r>    7.7935    1.0049 </r>
       <r>    9.6548   -0.0000 </r>
       <r>   10.0892   -0.0000 </r>
       <r>   10.2402   -0.0000 </r>
       <r>   10.5839   -0.0000 </r>
       <r>   11.8250   -0.0000 </r>
       <r>   11.9181   -0.0000 </r>
       <r>   12.3395   -0.0000 </r>
       <r>   12.4812   -0.0000 </r>
       <r>   12.5447   -0.0000 </r>
       <r>   12.5868   -0.0000 </r>
       <r>   12.6721   -0.0000 </r>
       <r>   12.7499   -0.0000 </r>
       <r>   12.8174   -0.0000 </r>
       <r>   12.8658   -0.0000 </r>
       <r>   12.8923   -0.0000 </r>
       <r>   12.9212   -0.0000 </r>
       <r>   12.9564   -0.0000 </r>
       <r>   13.0069   -0.0000 </r>
       <r>   13.0347   -0.0000 </r>
       <r>   13.0627   -0.0000 </r>
       <r>   13.1510   -0.0000 </r>
       <r>   13.2630   -0.0000 </r>
       <r>   13.4383   -0.0000 </r>
       <r>   13.5101   -0.0000 </r>
       <r>   13.5346   -0.0000 </r>
       <r>   13.5903   -0.0000 </r>
       <r>   13.6157   -0.0000 </r>
       <r>   13.6322   -0.0000 </r>
       <r>   13.6680   -0.0000 </r>
       <r>   13.6923    0.0000 </r>
       <r>   13.7485    0.0000 </r>
       <r>   13.8645    0.0000 </r>
       <r>   13.9672    0.0000 </r>
       <r>   14.0125    0.0000 </r>
       <r>   14.0904    0.0000 </r>
       <r>   14.4115    0.0000 </r>
       <r>   14.5961    0.0000 </r>
       <r>   14.6541    0.0000 </r>
       <r>   14.6937    0.0000 </r>
       <r>   14.7632    0.0000 </r>
      </set>
      <set comment="kpoint 3">
       <r>   -7.2062    1.0000 </r>
       <r>   -6.6874    1.0000 </r>
       <r>   -5.7327    1.0000 </r>
       <r>   -5.6668    1.0000 </r>
       <r>   -5.6352    1.0000 </r>
       <r>   -5.5560    1.0000 </r>
       <r>   -5.2347    1.0000 </r>
       <r>   -5.1914    1.0000 </r>
       <r>   -5.1492    1.0000 </r>
       <r>   -5.0566    1.0000 </r>
       <r>   -4.5933    1.0000 </r>
       <r>   -4.3997    1.0000 </r>
       <r>   -4.3111    1.0000 </r>
       <r>   -4.2345    1.0000 </r>
       <r>   -4.1470    1.0000 </r>
       <r>   -4.0967    1.0000 </r>
       <r>   -4.0475    1.0000 </r>
       <r>   -3.9657    1.0000 </r>
       <r>   -3.8438    1.0000 </r>
       <r>   -3.5344    1.0000 </r>
       <r>   -3.4122    1.0000 </r>
       <r>   -3.3477    1.0000 </r>
       <r>   -3.3386    1.0000 </r>
       <r>   -3.1569    1.0000 </r>
       <r>   -2.6806    1.0000 </r>
       <r>   -2.5552    1.0000 </r>
       <r>   -2.5103    1.0000 </r>
       <r>   -2.4755    1.0000 </r>
       <r>   -2.3211    1.0000 </r>
       <r>   -2.2585    1.0000 </r>
       <r>   -2.1613    1.0000 </r>
       <r>   -2.1156    1.0000 </r>
       <r>   -0.1709    1.0000 </r>
       <r>   -0.0707    1.0000 </r>
       <r>   -0.0260    1.0000 </r>
       <r>    0.0636    1.0000 </r>
       <r>    0.3085    1.0000 </r>
       <r>    0.3727    1.0000 </r>
       <r>    0.6811    1.0000 </r>
       <r>    0.7191    1.0000 </r>
       <r>    0.8906    1.0000 </r>
       <r>    0.9384    1.0000 </r>
       <r>    0.9579    1.0000 </r>
       <r>    1.0425    1.0000 </r>
       <r>    1.0551    1.0000 </r>
       <r>    1.0927    1.0000 </r>
       <r>    1.1591    1.0000 </r>
       <r>    1.2142    1.0000 </r>
       <r>    1.2264    1.0000 </r>
       <r>    1.3253    1.0000 </r>
       <r>    1.4142    1.0000 </r>
       <r>    1.5006    1.0000 </r>
       <r>    1.5668    1.0000 </r>
       <r>    2.5981    1.0000 </r>
       <r>    2.6488    1.0000 </r>
       <r>    2.6575    1.0000 </r>
       <r>    2.7065    1.0000 </r>
       <r>    2.7966    1.0000 </r>
       <r>    2.8755    1.0000 </r>
       <r>    2.8939    1.0000 </r>
       <r>    2.9387    1.0000 </r>
       <r>    2.9773    1.0000 </r>
       <r>    3.0360    1.0000 </r>
       <r>    3.0587    1.0000 </r>
       <r>    3.0986    1.0000 </r>
       <r>    3.1559    1.0000 </r>
       <r>    3.4802    1.0000 </r>
       <r>    3.5132    1.0000 </r>
       <r>    3.6052    1.0000 </r>
       <r>    3.6635    1.0000 </r>
       <r>    3.8559    1.0000 </r>
       <r>    3.9672    1.0000 </r>
       <r>    4.0625    1.0000 </r>
       <r>    4.1255    1.0000 </r>
       <r>    4.2433    1.0000 </r>
       <r>    4.2843    1.0000 </r>
       <r>    4.3297    1.0000 </r>
       <r>    4.3540    1.0000 </r>
       <r>    4.4244    1.0000 </r>
       <r>    4.4415    1.0000 </r>
       <r>    4.4545    1.0000 </r>
       <r>    4.5052    1.0000 </r>
       <r>    4.5379    1.0000 </r>
       <r>    4.5966    1.0000 </r>
       <r>    4.6438    1.0000 </r>
       <r>    4.7323    1.0000 </r>
       <r>    4.7606    1.0000 </r>
       <r>    4.8088    1.0000 </r>
       <r>    4.8609    1.0000 </r>
       <r>    4.9448    1.0000 </r>
       <r>    5.0330    1.0000 </r>
       <r>    5.0971    1.0000 </r>
       <r>    5.3200    1.0000 </r>
       <r>    5.4014    1.0000 </r>
       <r>    5.5256    1.0000 </r>
       <r>    5.5623    1.0000 </r>
       <r>    5.6015    1.0000 </r>
       <r>    5.7181    1.0000 </r>
       <r>    5.8118    1.0000 </r>
       <r>    5.8638    1.0000 </r>
       <r>    5.9313    1.0000 </r>
       <r>    5.9516    1.0000 </r>
       <r>    6.1221    1.0000 </r>
       <r>    6.1484    1.0000 </r>
       <r>    6.2140    1.0000 </r>
       <r>    6.3066    1.0000 </r>
       <r>    6.3367    1.0000 </r>
       <r>    6.4191    1.0000 </r>
       <r>    6.4843    1.0000 </r>
       <r>    6.5091    1.0000 </r>
       <r>    6.6437    1.0000 </r>
       <r>    6.6964    1.0000 </r>
       <r>    6.7559    1.0000 </r>
       <r>    6.7678    1.0000 </r>
       <r>    6.8309    1.0000 </r>
       <r>    6.8657    1.0000 </r>
       <r>    6.9058    1.0000 </r>
       <r>    6.9400    1.0000 </r>
       <r>    6.9848    1.0000 </r>
       <r>    7.0166    1.0000 </r>
       <r>    7.0401    1.0000 </r>
       <r>    7.0685    1.0000 </r>
       <r>    7.0977    1.0000 </r>
       <r>    7.1466    1.0000 </r>
       <r>    7.2151    1.0000 </r>
       <r>    7.5825    1.0000 </r>
       <r>    7.6873    1.0005 </r>
       <r>    7.7909    1.0047 </r>
       <r>    9.6327   -0.0000 </r>
       <r>   10.1483   -0.0000 </r>
       <r>   10.1844   -0.0000 </r>
       <r>   10.6023   -0.0000 </r>
       <r>   11.8253   -0.0000 </r>
       <r>   11.9054   -0.0000 </r>
       <r>   12.3731   -0.0000 </r>
       <r>   12.4472   -0.0000 </r>
       <r>   12.5585   -0.0000 </r>
       <r>   12.5854   -0.0000 </r>
       <r>   12.6474   -0.0000 </r>
       <r>   12.7821   -0.0000 </r>
       <r>   12.8202   -0.0000 </r>
       <r>   12.8377   -0.0000 </r>
       <r>   12.8861   -0.0000 </r>
       <r>   12.9180   -0.0000 </r>
       <r>   12.9379   -0.0000 </r>
       <r>   12.9853   -0.0000 </r>
       <r>   13.1091   -0.0000 </r>
       <r>   13.1179   -0.0000 </r>
       <r>   13.1731   -0.0000 </r>
       <r>   13.2742   -0.0000 </r>
       <r>   13.4218   -0.0000 </r>
       <r>   13.4767   -0.0000 </r>
       <r>   13.5308   -0.0000 </r>
       <r>   13.5642   -0.0000 </r>
       <r>   13.5938   -0.0000 </r>
       <r>   13.6097   -0.0000 </r>
       <r>   13.6628   -0.0000 </r>
       <r>   13.7020    0.0000 </r>
       <r>   13.7443    0.0000 </r>
       <r>   13.8344    0.0000 </r>
       <r>   13.9639    0.0000 </r>
       <r>   14.0257    0.0000 </r>
       <r>   14.0871    0.0000 </r>
       <r>   14.4199    0.0000 </r>
       <r>   14.5827    0.0000 </r>
       <r>   14.6571    0.0000 </r>
       <r>   14.7036    0.0000 </r>
       <r>   14.7447    0.0000 </r>
      </set>
      <set comment="kpoint 4">
       <r>   -7.2057    1.0000 </r>
       <r>   -6.6697    1.0000 </r>
       <r>   -5.8760    1.0000 </r>
       <r>   -5.7319    1.0000 </r>
       <r>   -5.5437    1.0000 </r>
       <r>   -5.4205    1.0000 </r>
       <r>   -5.3758    1.0000 </r>
       <r>   -5.1987    1.0000 </r>
       <r>   -5.0447    1.0000 </r>
       <r>   -4.9205    1.0000 </r>
       <r>   -4.6708    1.0000 </r>
       <r>   -4.4216    1.0000 </r>
       <r>   -4.3267    1.0000 </r>
       <r>   -4.2463    1.0000 </r>
       <r>   -4.1547    1.0000 </r>
       <r>   -4.0832    1.0000 </r>
       <r>   -4.0060    1.0000 </r>
       <r>   -3.9281    1.0000 </r>
       <r>   -3.8670    1.0000 </r>
       <r>   -3.6540    1.0000 </r>
       <r>   -3.4738    1.0000 </r>
       <r>   -3.3374    1.0000 </r>
       <r>   -3.2495    1.0000 </r>
       <r>   -3.1566    1.0000 </r>
       <r>   -2.7605    1.0000 </r>
       <r>   -2.6032    1.0000 </r>
       <r>   -2.4489    1.0000 </r>
       <r>   -2.3820    1.0000 </r>
       <r>   -2.3148    1.0000 </r>
       <r>   -2.2762    1.0000 </r>
       <r>   -2.1582    1.0000 </r>
       <r>   -2.1082    1.0000 </r>
       <r>   -0.1535    1.0000 </r>
       <r>   -0.0818    1.0000 </r>
       <r>   -0.0032    1.0000 </r>
       <r>    0.0274    1.0000 </r>
       <r>    0.3211    1.0000 </r>
       <r>    0.3582    1.0000 </r>
       <r>    0.6921    1.0000 </r>
       <r>    0.7236    1.0000 </r>
       <r>    0.8899    1.0000 </r>
       <r>    0.9228    1.0000 </r>
       <r>    0.9665    1.0000 </r>
       <r>    1.0468    1.0000 </r>
       <r>    1.0698    1.0000 </r>
       <r>    1.1203    1.0000 </r>
       <r>    1.1595    1.0000 </r>
       <r>    1.1980    1.0000 </r>
       <r>    1.2569    1.0000 </r>
       <r>    1.3267    1.0000 </r>
       <r>    1.3723    1.0000 </r>
       <r>    1.4741    1.0000 </r>
       <r>    1.5308    1.0000 </r>
       <r>    2.5505    1.0000 </r>
       <r>    2.6355    1.0000 </r>
       <r>    2.7029    1.0000 </r>
       <r>    2.7429    1.0000 </r>
       <r>    2.8181    1.0000 </r>
       <r>    2.8862    1.0000 </r>
       <r>    2.9175    1.0000 </r>
       <r>    2.9421    1.0000 </r>
       <r>    2.9596    1.0000 </r>
       <r>    2.9979    1.0000 </r>
       <r>    3.0322    1.0000 </r>
       <r>    3.1058    1.0000 </r>
       <r>    3.1883    1.0000 </r>
       <r>    3.4813    1.0000 </r>
       <r>    3.5302    1.0000 </r>
       <r>    3.5955    1.0000 </r>
       <r>    3.6633    1.0000 </r>
       <r>    3.9059    1.0000 </r>
       <r>    3.9846    1.0000 </r>
       <r>    4.0362    1.0000 </r>
       <r>    4.1072    1.0000 </r>
       <r>    4.2537    1.0000 </r>
       <r>    4.2734    1.0000 </r>
       <r>    4.2886    1.0000 </r>
       <r>    4.3437    1.0000 </r>
       <r>    4.3582    1.0000 </r>
       <r>    4.4123    1.0000 </r>
       <r>    4.4769    1.0000 </r>
       <r>    4.5378    1.0000 </r>
       <r>    4.5901    1.0000 </r>
       <r>    4.6369    1.0000 </r>
       <r>    4.6505    1.0000 </r>
       <r>    4.7327    1.0000 </r>
       <r>    4.7834    1.0000 </r>
       <r>    4.8063    1.0000 </r>
       <r>    4.8684    1.0000 </r>
       <r>    4.9402    1.0000 </r>
       <r>    4.9962    1.0000 </r>
       <r>    5.0428    1.0000 </r>
       <r>    5.3458    1.0000 </r>
       <r>    5.4068    1.0000 </r>
       <r>    5.5226    1.0000 </r>
       <r>    5.5870    1.0000 </r>
       <r>    5.6417    1.0000 </r>
       <r>    5.6831    1.0000 </r>
       <r>    5.7472    1.0000 </r>
       <r>    5.8382    1.0000 </r>
       <r>    5.9250    1.0000 </r>
       <r>    6.0017    1.0000 </r>
       <r>    6.0844    1.0000 </r>
       <r>    6.1568    1.0000 </r>
       <r>    6.2399    1.0000 </r>
       <r>    6.2799    1.0000 </r>
       <r>    6.3774    1.0000 </r>
       <r>    6.4407    1.0000 </r>
       <r>    6.4857    1.0000 </r>
       <r>    6.5748    1.0000 </r>
       <r>    6.6409    1.0000 </r>
       <r>    6.7036    1.0000 </r>
       <r>    6.7484    1.0000 </r>
       <r>    6.7836    1.0000 </r>
       <r>    6.8347    1.0000 </r>
       <r>    6.8482    1.0000 </r>
       <r>    6.8892    1.0000 </r>
       <r>    6.9165    1.0000 </r>
       <r>    6.9338    1.0000 </r>
       <r>    6.9836    1.0000 </r>
       <r>    7.0176    1.0000 </r>
       <r>    7.0635    1.0000 </r>
       <r>    7.1091    1.0000 </r>
       <r>    7.1937    1.0000 </r>
       <r>    7.2219    1.0000 </r>
       <r>    7.5207    1.0000 </r>
       <r>    7.7463    1.0020 </r>
       <r>    7.7892    1.0046 </r>
       <r>    9.6337   -0.0000 </r>
       <r>   10.1623   -0.0000 </r>
       <r>   10.1829   -0.0000 </r>
       <r>   10.5799   -0.0000 </r>
       <r>   11.8616   -0.0000 </r>
       <r>   11.8880   -0.0000 </r>
       <r>   12.3570   -0.0000 </r>
       <r>   12.4291   -0.0000 </r>
       <r>   12.5177   -0.0000 </r>
       <r>   12.5410   -0.0000 </r>
       <r>   12.6710   -0.0000 </r>
       <r>   12.7332   -0.0000 </r>
       <r>   12.8040   -0.0000 </r>
       <r>   12.8654   -0.0000 </r>
       <r>   12.8836   -0.0000 </r>
       <r>   12.9467   -0.0000 </r>
       <r>   12.9802   -0.0000 </r>
       <r>   13.0300   -0.0000 </r>
       <r>   13.0850   -0.0000 </r>
       <r>   13.1115   -0.0000 </r>
       <r>   13.1691   -0.0000 </r>
       <r>   13.3111   -0.0000 </r>
       <r>   13.4050   -0.0000 </r>
       <r>   13.4728   -0.0000 </r>
       <r>   13.5336   -0.0000 </r>
       <r>   13.5573   -0.0000 </r>
       <r>   13.5979   -0.0000 </r>
       <r>   13.6505   -0.0000 </r>
       <r>   13.6860    0.0000 </r>
       <r>   13.7229    0.0000 </r>
       <r>   13.7689    0.0000 </r>
       <r>   13.8541    0.0000 </r>
       <r>   13.9500    0.0000 </r>
       <r>   14.0251    0.0000 </r>
       <r>   14.1424    0.0000 </r>
       <r>   14.4108    0.0000 </r>
       <r>   14.5461    0.0000 </r>
       <r>   14.6401    0.0000 </r>
       <r>   14.6802    0.0000 </r>
       <r>   14.7469    0.0000 </r>
      </set>
      <set comment="kpoint 5">
       <r>   -7.0304    1.0000 </r>
       <r>   -6.6422    1.0000 </r>
       <r>   -6.3373    1.0000 </r>
       <r>   -5.9906    1.0000 </r>
       <r>   -5.5026    1.0000 </r>
       <r>   -5.4775    1.0000 </r>
       <r>   -5.2349    1.0000 </r>
       <r>   -5.1206    1.0000 </r>
       <r>   -4.8722    1.0000 </r>
       <r>   -4.8015    1.0000 </r>
       <r>   -4.6410    1.0000 </r>
       <r>   -4.6092    1.0000 </r>
       <r>   -4.5262    1.0000 </r>
       <r>   -4.3188    1.0000 </r>
       <r>   -4.0664    1.0000 </r>
       <r>   -4.0259    1.0000 </r>
       <r>   -3.6767    1.0000 </r>
       <r>   -3.5646    1.0000 </r>
       <r>   -3.5227    1.0000 </r>
       <r>   -3.5107    1.0000 </r>
       <r>   -3.2806    1.0000 </r>
       <r>   -3.2478    1.0000 </r>
       <r>   -3.1498    1.0000 </r>
       <r>   -3.0957    1.0000 </r>
       <r>   -2.9903    1.0000 </r>
       <r>   -2.7612    1.0000 </r>
       <r>   -2.7337    1.0000 </r>
       <r>   -2.6935    1.0000 </r>
       <r>   -2.6259    1.0000 </r>
       <r>   -2.4300    1.0000 </r>
       <r>   -2.2759    1.0000 </r>
       <r>   -2.1882    1.0000 </r>
       <r>   -0.1908    1.0000 </r>
       <r>   -0.1680    1.0000 </r>
       <r>    0.3192    1.0000 </r>
       <r>    0.3686    1.0000 </r>
       <r>    0.4726    1.0000 </r>
       <r>    0.5696    1.0000 </r>
       <r>    0.6068    1.0000 </r>
       <r>    0.6210    1.0000 </r>
       <r>    0.6818    1.0000 </r>
       <r>    0.7151    1.0000 </r>
       <r>    0.8219    1.0000 </r>
       <r>    0.8485    1.0000 </r>
       <r>    0.8959    1.0000 </r>
       <r>    1.0006    1.0000 </r>
       <r>    1.1413    1.0000 </r>
       <r>    1.2027    1.0000 </r>
       <r>    1.2831    1.0000 </r>
       <r>    1.3294    1.0000 </r>
       <r>    1.9239    1.0000 </r>
       <r>    1.9532    1.0000 </r>
       <r>    2.0193    1.0000 </r>
       <r>    2.0839    1.0000 </r>
       <r>    2.1481    1.0000 </r>
       <r>    2.2078    1.0000 </r>
       <r>    2.3940    1.0000 </r>
       <r>    2.5295    1.0000 </r>
       <r>    2.5597    1.0000 </r>
       <r>    2.6297    1.0000 </r>
       <r>    2.7612    1.0000 </r>
       <r>    3.1357    1.0000 </r>
       <r>    3.1806    1.0000 </r>
       <r>    3.2574    1.0000 </r>
       <r>    3.2955    1.0000 </r>
       <r>    3.3371    1.0000 </r>
       <r>    3.3785    1.0000 </r>
       <r>    3.6197    1.0000 </r>
       <r>    3.8460    1.0000 </r>
       <r>    3.8688    1.0000 </r>
       <r>    3.9457    1.0000 </r>
       <r>    3.9889    1.0000 </r>
       <r>    4.0686    1.0000 </r>
       <r>    4.0987    1.0000 </r>
       <r>    4.1852    1.0000 </r>
       <r>    4.3142    1.0000 </r>
       <r>    4.3526    1.0000 </r>
       <r>    4.4475    1.0000 </r>
       <r>    4.4932    1.0000 </r>
       <r>    4.6103    1.0000 </r>
       <r>    4.6644    1.0000 </r>
       <r>    4.7209    1.0000 </r>
       <r>    4.7870    1.0000 </r>
       <r>    4.8704    1.0000 </r>
       <r>    4.9063    1.0000 </r>
       <r>    5.0185    1.0000 </r>
       <r>    5.0438    1.0000 </r>
       <r>    5.1002    1.0000 </r>
       <r>    5.1969    1.0000 </r>
       <r>    5.2916    1.0000 </r>
       <r>    5.3654    1.0000 </r>
       <r>    5.3929    1.0000 </r>
       <r>    5.4194    1.0000 </r>
       <r>    5.4590    1.0000 </r>
       <r>    5.4794    1.0000 </r>
       <r>    5.5233    1.0000 </r>
       <r>    5.5634    1.0000 </r>
       <r>    5.5996    1.0000 </r>
       <r>    5.6666    1.0000 </r>
       <r>    5.6962    1.0000 </r>
       <r>    5.7723    1.0000 </r>
       <r>    5.8451    1.0000 </r>
       <r>    5.9178    1.0000 </r>
       <r>    5.9558    1.0000 </r>
       <r>    6.0751    1.0000 </r>
       <r>    6.1108    1.0000 </r>
       <r>    6.1519    1.0000 </r>
       <r>    6.2088    1.0000 </r>
       <r>    6.2371    1.0000 </r>
       <r>    6.2792    1.0000 </r>
       <r>    6.3901    1.0000 </r>
       <r>    6.4683    1.0000 </r>
       <r>    6.4921    1.0000 </r>
       <r>    6.5293    1.0000 </r>
       <r>    6.6107    1.0000 </r>
       <r>    6.7077    1.0000 </r>
       <r>    6.7365    1.0000 </r>
       <r>    6.7739    1.0000 </r>
       <r>    6.8179    1.0000 </r>
       <r>    6.8732    1.0000 </r>
       <r>    6.9126    1.0000 </r>
       <r>    7.0233    1.0000 </r>
       <r>    7.0992    1.0000 </r>
       <r>    7.3509    1.0000 </r>
       <r>    7.4190    1.0000 </r>
       <r>    7.6530    1.0002 </r>
       <r>    7.6986    1.0007 </r>
       <r>    8.0492    1.0044 </r>
       <r>   10.3342   -0.0000 </r>
       <r>   10.4414   -0.0000 </r>
       <r>   10.4907   -0.0000 </r>
       <r>   11.1951   -0.0000 </r>
       <r>   11.3030   -0.0000 </r>
       <r>   11.4745   -0.0000 </r>
       <r>   11.7319   -0.0000 </r>
       <r>   11.7725   -0.0000 </r>
       <r>   12.1347   -0.0000 </r>
       <r>   12.2161   -0.0000 </r>
       <r>   12.6825   -0.0000 </r>
       <r>   12.7242   -0.0000 </r>
       <r>   12.7460   -0.0000 </r>
       <r>   12.8263   -0.0000 </r>
       <r>   12.8966   -0.0000 </r>
       <r>   12.9288   -0.0000 </r>
       <r>   13.0318   -0.0000 </r>
       <r>   13.0609   -0.0000 </r>
       <r>   13.1573   -0.0000 </r>
       <r>   13.1714   -0.0000 </r>
       <r>   13.2789   -0.0000 </r>
       <r>   13.3071   -0.0000 </r>
       <r>   13.4337   -0.0000 </r>
       <r>   13.4824   -0.0000 </r>
       <r>   13.5295   -0.0000 </r>
       <r>   13.5483   -0.0000 </r>
       <r>   13.6066   -0.0000 </r>
       <r>   13.6622   -0.0000 </r>
       <r>   13.7528    0.0000 </r>
       <r>   13.7778    0.0000 </r>
       <r>   13.8173    0.0000 </r>
       <r>   13.9052    0.0000 </r>
       <r>   13.9641    0.0000 </r>
       <r>   14.1004    0.0000 </r>
       <r>   14.1828    0.0000 </r>
       <r>   14.5025    0.0000 </r>
       <r>   14.6088    0.0000 </r>
       <r>   14.6430    0.0000 </r>
       <r>   14.7513    0.0000 </r>
       <r>   14.8889    0.0000 </r>
      </set>
      <set comment="kpoint 6">
       <r>   -7.0318    1.0000 </r>
       <r>   -6.5402    1.0000 </r>
       <r>   -6.4732    1.0000 </r>
       <r>   -6.0036    1.0000 </r>
       <r>   -5.5504    1.0000 </r>
       <r>   -5.3994    1.0000 </r>
       <r>   -5.1424    1.0000 </r>
       <r>   -5.0371    1.0000 </r>
       <r>   -4.9499    1.0000 </r>
       <r>   -4.8997    1.0000 </r>
       <r>   -4.6704    1.0000 </r>
       <r>   -4.5724    1.0000 </r>
       <r>   -4.4418    1.0000 </r>
       <r>   -4.3776    1.0000 </r>
       <r>   -4.1204    1.0000 </r>
       <r>   -3.9851    1.0000 </r>
       <r>   -3.6757    1.0000 </r>
       <r>   -3.5414    1.0000 </r>
       <r>   -3.5061    1.0000 </r>
       <r>   -3.4514    1.0000 </r>
       <r>   -3.3780    1.0000 </r>
       <r>   -3.3257    1.0000 </r>
       <r>   -3.1584    1.0000 </r>
       <r>   -3.0451    1.0000 </r>
       <r>   -2.9495    1.0000 </r>
       <r>   -2.8204    1.0000 </r>
       <r>   -2.7397    1.0000 </r>
       <r>   -2.7089    1.0000 </r>
       <r>   -2.6055    1.0000 </r>
       <r>   -2.3394    1.0000 </r>
       <r>   -2.2927    1.0000 </r>
       <r>   -2.2129    1.0000 </r>
       <r>   -0.2396    1.0000 </r>
       <r>   -0.1121    1.0000 </r>
       <r>    0.3807    1.0000 </r>
       <r>    0.4007    1.0000 </r>
       <r>    0.4493    1.0000 </r>
       <r>    0.5307    1.0000 </r>
       <r>    0.5559    1.0000 </r>
       <r>    0.6406    1.0000 </r>
       <r>    0.6833    1.0000 </r>
       <r>    0.7203    1.0000 </r>
       <r>    0.7934    1.0000 </r>
       <r>    0.8419    1.0000 </r>
       <r>    0.9281    1.0000 </r>
       <r>    0.9894    1.0000 </r>
       <r>    1.1571    1.0000 </r>
       <r>    1.1997    1.0000 </r>
       <r>    1.2406    1.0000 </r>
       <r>    1.3372    1.0000 </r>
       <r>    1.8372    1.0000 </r>
       <r>    1.9935    1.0000 </r>
       <r>    2.0463    1.0000 </r>
       <r>    2.0940    1.0000 </r>
       <r>    2.1796    1.0000 </r>
       <r>    2.2420    1.0000 </r>
       <r>    2.4075    1.0000 </r>
       <r>    2.5377    1.0000 </r>
       <r>    2.5760    1.0000 </r>
       <r>    2.6189    1.0000 </r>
       <r>    2.6926    1.0000 </r>
       <r>    3.1179    1.0000 </r>
       <r>    3.2105    1.0000 </r>
       <r>    3.2317    1.0000 </r>
       <r>    3.2731    1.0000 </r>
       <r>    3.3621    1.0000 </r>
       <r>    3.4901    1.0000 </r>
       <r>    3.5474    1.0000 </r>
       <r>    3.8198    1.0000 </r>
[...]
      </set>
     </set>
    </set>
   </array>
  </eigenvalues>
  <separator name="orbital magnetization" >
   <v name="MAGDIPOLOUT">      0.00000000      0.00000000      0.00000000</v>
  </separator>
  <dos>
   <i name="efermi">      8.22174380 </i>
   <total>
    <array>
     <dimension dim="1">gridpoints</dimension>
     <dimension dim="2">spin</dimension>
     <field>energy</field>
     <field>total</field>
     <field>integrated</field>
     <set>
      <set comment="spin 1">
       <r>    -9.3819     0.0000     0.0000 </r>
       <r>    -9.2929     0.0000     0.0000 </r>
       <r>    -9.2040     0.0000     0.0000 </r>
       <r>    -9.1150     0.0000     0.0000 </r>
       <r>    -9.0260    -0.0000    -0.0000 </r>
       <r>    -8.9370    -0.0000    -0.0000 </r>
       <r>    -8.8480    -0.0000    -0.0000 </r>
       <r>    -8.7590    -0.0000    -0.0000 </r>
       <r>    -8.6700    -0.0000    -0.0000 </r>
       <r>    -8.5811    -0.0000    -0.0000 </r>
       <r>    -8.4921    -0.0000    -0.0000 </r>
       <r>    -8.4031    -0.0000    -0.0000 </r>
       <r>    -8.3141    -0.0000    -0.0000 </r>
       <r>    -8.2251    -0.0000    -0.0000 </r>
       <r>    -8.1361    -0.0000    -0.0000 </r>
       <r>    -8.0471    -0.0000    -0.0000 </r>
       <r>    -7.9581    -0.0001    -0.0000 </r>
       <r>    -7.8692    -0.0012    -0.0001 </r>
       <r>    -7.7802    -0.0065    -0.0007 </r>
       <r>    -7.6912    -0.0217    -0.0026 </r>
       <r>    -7.6022    -0.0425    -0.0064 </r>
       <r>    -7.5132    -0.0293    -0.0090 </r>
       <r>    -7.4242     0.1183     0.0015 </r>
       <r>    -7.3352     0.5774     0.0529 </r>
       <r>    -7.2463     1.4909     0.1856 </r>
       <r>    -7.1573     2.7728     0.4323 </r>
       <r>    -7.0683     4.0416     0.7920 </r>
       <r>    -6.9793     4.6267     1.2037 </r>
       <r>    -6.8903     4.1688     1.5746 </r>
       <r>    -6.8013     3.2964     1.8680 </r>
       <r>    -6.7123     3.1942     2.1522 </r>
       <r>    -6.6234     4.7049     2.5709 </r>
       <r>    -6.5344     7.3492     3.2249 </r>
       <r>    -6.4454     9.2068     4.0442 </r>
       <r>    -6.3564     8.7576     4.8235 </r>
       <r>    -6.2674     6.4825     5.4003 </r>
       <r>    -6.1784     4.2336     5.7771 </r>
       <r>    -6.0894     3.8458     6.1193 </r>
       <r>    -6.0004     5.5113     6.6097 </r>
       <r>    -5.9115     7.4706     7.2745 </r>
       <r>    -5.8225     8.5835     8.0383 </r>
       <r>    -5.7335     9.4107     8.8757 </r>
       <r>    -5.6445    10.4031     9.8015 </r>
       <r>    -5.5555    11.1553    10.7941 </r>
       <r>    -5.4665    10.8751    11.7619 </r>
       <r>    -5.3775     9.3979    12.5981 </r>
       <r>    -5.2886     8.1875    13.3267 </r>
       <r>    -5.1996     9.0777    14.1345 </r>
       <r>    -5.1106    11.7145    15.1769 </r>
       <r>    -5.0216    13.3590    16.3657 </r>
       <r>    -4.9326    11.8649    17.4215 </r>
       <r>    -4.8436     8.2338    18.1542 </r>
       <r>    -4.7546     5.9113    18.6802 </r>
       <r>    -4.6656     7.3557    19.3348 </r>
       <r>    -4.5767    11.4450    20.3532 </r>
       <r>    -4.4877    15.4606    21.7290 </r>
       <r>    -4.3987    17.6174    23.2967 </r>
       <r>    -4.3097    17.1899    24.8264 </r>
       <r>    -4.2207    16.0022    26.2504 </r>
       <r>    -4.1317    17.2844    27.7885 </r>
       <r>    -4.0427    20.2308    29.5887 </r>
       <r>    -3.9538    20.6261    31.4242 </r>
       <r>    -3.8648    17.4444    32.9765 </r>
       <r>    -3.7758    14.2036    34.2404 </r>
       <r>    -3.6868    14.1685    35.5012 </r>
       <r>    -3.5978    16.8460    37.0003 </r>
       <r>    -3.5088    19.1121    38.7010 </r>
       <r>    -3.4198    18.9552    40.3878 </r>
       <r>    -3.3309    17.4372    41.9394 </r>
       <r>    -3.2419    16.9103    43.4442 </r>
       <r>    -3.1529    18.1616    45.0603 </r>
       <r>    -3.0639    19.6763    46.8113 </r>
       <r>    -2.9749    20.1195    48.6016 </r>
       <r>    -2.8859    20.5798    50.4330 </r>
       <r>    -2.7969    22.4036    52.4266 </r>
       <r>    -2.7079    23.7815    54.5428 </r>
       <r>    -2.6190    21.4390    56.4506 </r>
       <r>    -2.5300    15.8075    57.8572 </r>
       <r>    -2.4410    11.6049    58.8899 </r>
       <r>    -2.3520    12.1391    59.9701 </r>
       <r>    -2.2630    14.8916    61.2953 </r>
       <r>    -2.1740    14.7307    62.6061 </r>
       <r>    -2.0850    10.2769    63.5206 </r>
       <r>    -1.9961     4.6938    63.9383 </r>
       <r>    -1.9071     1.1395    64.0397 </r>
       <r>    -1.8181    -0.0754    64.0330 </r>
       <r>    -1.7291    -0.1988    64.0153 </r>
       <r>    -1.6401    -0.1106    64.0055 </r>
       <r>    -1.5511    -0.0447    64.0015 </r>
       <r>    -1.4621    -0.0134    64.0003 </r>
       <r>    -1.3732    -0.0028    64.0000 </r>
       <r>    -1.2842    -0.0004    64.0000 </r>
       <r>    -1.1952    -0.0001    64.0000 </r>
       <r>    -1.1062    -0.0008    63.9999 </r>
       <r>    -1.0172    -0.0053    63.9994 </r>
       <r>    -0.9282    -0.0205    63.9976 </r>
       <r>    -0.8392    -0.0399    63.9941 </r>
       <r>    -0.7502     0.0007    63.9941 </r>
       <r>    -0.6613     0.1892    64.0110 </r>
       <r>    -0.5723     0.4437    64.0505 </r>
       <r>    -0.4833     0.5949    64.1034 </r>
       <r>    -0.3943     1.1410    64.2049 </r>
       <r>    -0.3053     3.3633    64.5042 </r>
       <r>    -0.2163     7.2193    65.1466 </r>
       <r>    -0.1273    10.0140    66.0377 </r>
       <r>    -0.0384     9.7068    66.9015 </r>
       <r>     0.0506     7.9696    67.6107 </r>
       <r>     0.1396     7.8714    68.3111 </r>
       <r>     0.2286    10.8295    69.2748 </r>
       <r>     0.3176    15.9559    70.6947 </r>
       <r>     0.4066    20.4484    72.5143 </r>
       <r>     0.4956    22.3708    74.5050 </r>
       <r>     0.5845    23.2333    76.5725 </r>
       <r>     0.6735    25.3310    78.8266 </r>
       <r>     0.7625    28.4102    81.3547 </r>
       <r>     0.8515    30.9014    84.1045 </r>
       <r>     0.9405    31.6481    86.9208 </r>
       <r>     1.0295    30.6203    89.6456 </r>
       <r>     1.1185    29.9102    92.3072 </r>
       <r>     1.2075    30.8388    95.0514 </r>
       <r>     1.2964    30.6557    97.7793 </r>
       <r>     1.3854    26.1077   100.1026 </r>
       <r>     1.4744    17.7797   101.6847 </r>
       <r>     1.5634     8.9353   102.4798 </r>
       <r>     1.6524     2.8876   102.7368 </r>
       <r>     1.7414     1.8779   102.9039 </r>
       <r>     1.8304     5.7605   103.4165 </r>
       <r>     1.9193    11.6466   104.4529 </r>
       <r>     2.0083    16.4151   105.9136 </r>
       <r>     2.0973    18.6363   107.5720 </r>
       <r>     2.1863    17.8350   109.1591 </r>
       <r>     2.2753    14.3916   110.4397 </r>
       <r>     2.3643    10.6228   111.3850 </r>
       <r>     2.4533     9.7603   112.2536 </r>
       <r>     2.5423    12.7468   113.3878 </r>
       <r>     2.6312    16.4923   114.8554 </r>
       <r>     2.7202    16.8190   116.3521 </r>
       <r>     2.8092    13.9679   117.5951 </r>
       <r>     2.8982    12.6050   118.7167 </r>
       <r>     2.9872    15.7826   120.1212 </r>
       <r>     3.0762    22.1629   122.0934 </r>
       <r>     3.1652    28.4463   124.6247 </r>
       <r>     3.2541    31.5149   127.4291 </r>
       <r>     3.3431    30.2594   130.1218 </r>
       <r>     3.4321    27.2757   132.5489 </r>
       <r>     3.5211    25.3666   134.8062 </r>
       <r>     3.6101    23.2593   136.8760 </r>
       <r>     3.6991    19.5074   138.6119 </r>
       <r>     3.7881    16.6989   140.0979 </r>
       <r>     3.8770    17.5261   141.6574 </r>
       <r>     3.9660    20.4842   143.4803 </r>
       <r>     4.0550    21.7939   145.4196 </r>
       <r>     4.1440    20.8128   147.2717 </r>
       <r>     4.2330    21.4759   149.1827 </r>
       <r>     4.3220    25.9032   151.4878 </r>
       <r>     4.4110    30.9560   154.2424 </r>
       <r>     4.5000    33.5013   157.2236 </r>
       <r>     4.5889    33.6839   160.2210 </r>
       <r>     4.6779    33.4126   163.1943 </r>
       <r>     4.7669    34.1816   166.2360 </r>
       <r>     4.8559    35.3191   169.3789 </r>
       <r>     4.9449    34.8887   172.4835 </r>
       <r>     5.0339    32.2045   175.3493 </r>
       <r>     5.1229    28.9593   177.9263 </r>
       <r>     5.2118    28.2941   180.4441 </r>
       <r>     5.3008    30.9941   183.2021 </r>
       <r>     5.3898    34.1952   186.2450 </r>
       <r>     5.4788    36.0890   189.4564 </r>
       <r>     5.5678    37.4864   192.7922 </r>
       <r>     5.6568    37.9062   196.1654 </r>
       <r>     5.7458    35.9591   199.3652 </r>
       <r>     5.8347    33.2015   202.3197 </r>
       <r>     5.9237    32.2040   205.1854 </r>
       <r>     6.0127    32.5225   208.0795 </r>
       <r>     6.1017    32.3269   210.9561 </r>
       <r>     6.1907    31.4825   213.7577 </r>
       <r>     6.2797    30.7407   216.4932 </r>
       <r>     6.3687    30.3244   219.1916 </r>
       <r>     6.4577    30.1998   221.8790 </r>
       <r>     6.5466    29.8291   224.5334 </r>
       <r>     6.6356    29.0070   227.1146 </r>
       <r>     6.7246    29.1153   229.7055 </r>
       <r>     6.8136    31.1483   232.4773 </r>
       <r>     6.9026    33.8816   235.4923 </r>
       <r>     6.9916    34.6055   238.5717 </r>
       <r>     7.0806    31.1170   241.3407 </r>
       <r>     7.1695    24.4212   243.5138 </r>
       <r>     7.2585    18.3427   245.1461 </r>
       <r>     7.3475    15.5174   246.5269 </r>
       <r>     7.4365    15.6145   247.9164 </r>
       <r>     7.5255    16.9351   249.4234 </r>
       <r>     7.6145    17.9082   251.0170 </r>
       <r>     7.7035    17.2902   252.5556 </r>
       <r>     7.7925    14.2467   253.8233 </r>
       <r>     7.8814     9.6307   254.6803 </r>
       <r>     7.9704     5.9912   255.2135 </r>
       <r>     8.0594     4.3463   255.6002 </r>
       <r>     8.1484     3.1476   255.8803 </r>
       <r>     8.2374     1.4897   256.0129 </r>
       <r>     8.3264     0.2104   256.0316 </r>
       <r>     8.4154    -0.1838   256.0152 </r>
       <r>     8.5043    -0.1255   256.0041 </r>
       <r>     8.5933    -0.0381   256.0007 </r>
       <r>     8.6823    -0.0071   256.0001 </r>
       <r>     8.7713    -0.0026   255.9998 </r>
       <r>     8.8603    -0.0087   255.9990 </r>
       <r>     8.9493    -0.0220   255.9971 </r>
       <r>     9.0383    -0.0155   255.9957 </r>
       <r>     9.1272     0.0797   256.0028 </r>
       <r>     9.2162     0.2947   256.0290 </r>
       <r>     9.3052     0.5212   256.0754 </r>
       <r>     9.3942     0.6397   256.1323 </r>
       <r>     9.4832     0.8222   256.2055 </r>
       <r>     9.5722     1.3467   256.3253 </r>
       <r>     9.6612     1.8129   256.4866 </r>
       <r>     9.7502     1.4477   256.6155 </r>
       <r>     9.8391     0.4717   256.6574 </r>
       <r>     9.9281    -0.1047   256.6481 </r>
       <r>    10.0171     0.3679   256.6809 </r>
       <r>    10.1061     1.8913   256.8492 </r>
       <r>    10.1951     3.9270   257.1986 </r>
       <r>    10.2841     5.9773   257.7305 </r>
       <r>    10.3731     8.0460   258.4465 </r>
       <r>    10.4620    10.0924   259.3446 </r>
       <r>    10.5510    11.4287   260.3616 </r>
       <r>    10.6400    10.9040   261.3319 </r>
       <r>    10.7290     8.0477   262.0480 </r>
       <r>    10.8180     4.0034   262.4043 </r>
       <r>    10.9070     0.7547   262.4714 </r>
       <r>    10.9960    -0.5093   262.4261 </r>
       <r>    11.0849     0.4082   262.4624 </r>
       <r>    11.1739     3.2821   262.7545 </r>
       <r>    11.2629     6.8366   263.3629 </r>
       <r>    11.3519     9.1820   264.1799 </r>
       <r>    11.4409    10.0659   265.0757 </r>
       <r>    11.5299    10.8908   266.0448 </r>
       <r>    11.6189    12.6547   267.1709 </r>
       <r>    11.7079    15.2756   268.5302 </r>
       <r>    11.7968    17.5276   270.0899 </r>
       <r>    11.8858    17.9033   271.6831 </r>
       <r>    11.9748    16.8428   273.1819 </r>
       <r>    12.0638    15.8293   274.5905 </r>
       <r>    12.1528    14.3433   275.8668 </r>
       <r>    12.2418    11.2168   276.8650 </r>
       <r>    12.3308     8.2489   277.5990 </r>
       <r>    12.4197     8.3868   278.3453 </r>
       <r>    12.5087    11.9013   279.4044 </r>
       <r>    12.5977    17.4613   280.9582 </r>
       <r>    12.6867    23.8502   283.0805 </r>
       <r>    12.7757    29.5018   285.7058 </r>
       <r>    12.8647    32.8312   288.6273 </r>
       <r>    12.9537    33.0306   291.5666 </r>
       <r>    13.0427    30.6429   294.2934 </r>
       <r>    13.1316    26.9756   296.6939 </r>
       <r>    13.2206    22.5387   298.6995 </r>
       <r>    13.3096    18.8496   300.3769 </r>
       <r>    13.3986    19.6189   302.1227 </r>
       <r>    13.4876    25.2987   304.3739 </r>
       <r>    13.5766    30.4145   307.0804 </r>
       <r>    13.6656    30.8979   309.8299 </r>
       <r>    13.7545    29.0535   312.4152 </r>
       <r>    13.8435    28.3368   314.9368 </r>
       <r>    13.9325    28.7286   317.4933 </r>
       <r>    14.0215    28.5078   320.0301 </r>
       <r>    14.1105    26.3927   322.3787 </r>
       <r>    14.1995    21.5598   324.2972 </r>
       <r>    14.2885    14.5481   325.5918 </r>
       <r>    14.3774     8.8769   326.3817 </r>
       <r>    14.4664     8.9527   327.1784 </r>
       <r>    14.5554    14.9495   328.5087 </r>
       <r>    14.6444    21.3063   330.4047 </r>
       <r>    14.7334    21.8959   332.3531 </r>
       <r>    14.8224    16.1774   333.7927 </r>
       <r>    14.9114     8.5851   334.5566 </r>
       <r>    15.0004     3.3712   334.8566 </r>
       <r>    15.0893     1.9860   335.0334 </r>
       <r>    15.1783     3.0905   335.3084 </r>
       <r>    15.2673     3.8799   335.6536 </r>
       <r>    15.3563     2.9090   335.9125 </r>
       <r>    15.4453     1.1755   336.0171 </r>
       <r>    15.5343     0.0905   336.0251 </r>
       <r>    15.6233    -0.1605   336.0109 </r>
       <r>    15.7122    -0.0917   336.0027 </r>
       <r>    15.8012    -0.0255   336.0004 </r>
       <r>    15.8902    -0.0043   336.0000 </r>
       <r>    15.9792    -0.0005   336.0000 </r>
       <r>    16.0682    -0.0000   336.0000 </r>
       <r>    16.1572    -0.0000   336.0000 </r>
       <r>    16.2462    -0.0000   336.0000 </r>
       <r>    16.3351    -0.0000   336.0000 </r>
       <r>    16.4241    -0.0000   336.0000 </r>
       <r>    16.5131    -0.0000   336.0000 </r>
       <r>    16.6021    -0.0000   336.0000 </r>
       <r>    16.6911     0.0000   336.0000 </r>
       <r>    16.7801     0.0000   336.0000 </r>
       <r>    16.8691     0.0000   336.0000 </r>
       <r>    16.9581     0.0000   336.0000 </r>
       <r>    17.0470     0.0000   336.0000 </r>
       <r>    17.1360     0.0000   336.0000 </r>
       <r>    17.2250     0.0000   336.0000 </r>
       <r>    17.3140     0.0000   336.0000 </r>
      </set>
     </set>
    </array>
   </total>
  </dos>
 </calculation>
 <structure name="finalpos" >
  <crystal>
   <varray name="basis" >
    <v>       8.74331558       0.00000000       0.00000000 </v>
    <v>       0.00000000       8.74331558       0.00000000 </v>
    <v>       0.00000000       0.00000000       8.74331558 </v>
   </varray>
   <i name="volume">    668.38771987 </i>
   <varray name="rec_basis" >
    <v>       0.11437309       0.00000000       0.00000000 </v>
    <v>       0.00000000       0.11437309       0.00000000 </v>
    <v>       0.00000000       0.00000000       0.11437309 </v>
   </varray>
  </crystal>
  <varray name="positions" >
   <v>       0.11883216       0.12649571       0.12489568 </v>
   <v>       0.11770393       0.37041755       0.36762243 </v>
   <v>       0.37872850       0.12102655       0.36673085 </v>
   <v>       0.37578044       0.37748231       0.11875414 </v>
   <v>       0.12911494       0.13081763       0.63094491 </v>
   <v>       0.12825617       0.37419297       0.87218582 </v>
   <v>       0.36928332       0.12402025       0.87772144 </v>
   <v>       0.38128843       0.37391135       0.62530518 </v>
   <v>       0.12102541       0.61829640       0.12463532 </v>
   <v>       0.12497142       0.87529446       0.37005070 </v>
   <v>       0.37588984       0.62434219       0.36769116 </v>
   <v>       0.37653863       0.88089585       0.12274367 </v>
   <v>       0.12038323       0.62183200       0.62483055 </v>
   <v>       0.12864314       0.87821043       0.88315701 </v>
   <v>       0.37443702       0.62457600       0.87994366 </v>
   <v>       0.36657035       0.87524740       0.62152222 </v>
   <v>       0.63063836       0.12025364       0.12946815 </v>
   <v>       0.62066277       0.37069441       0.37372639 </v>
   <v>       0.86334177       0.12319973       0.38138113 </v>
   <v>       0.87502583       0.37311578       0.12708098 </v>
   <v>       0.62245719       0.12326470       0.62098192 </v>
   <v>       0.62080342       0.37569682       0.87372806 </v>
   <v>       0.87518509       0.11824036       0.87602198 </v>
   <v>       0.87963063       0.37504246       0.62276018 </v>
   <v>       0.62012934       0.62824673       0.13048119 </v>
   <v>       0.62871062       0.87055977       0.37306021 </v>
   <v>       0.87222631       0.62783400       0.36803032 </v>
   <v>       0.86963587       0.87209026       0.13299342 </v>
   <v>       0.61818464       0.62766523       0.62184453 </v>
   <v>       0.62582477       0.87421887       0.87834530 </v>
   <v>       0.88194116       0.61485399       0.88019460 </v>
   <v>       0.89108475       0.87683305       0.61197061 </v>
   <v>       0.99575220       0.99766094       0.99734648 </v>
   <v>       0.00926989       0.24886154       0.25344192 </v>
   <v>       0.24657720       0.00052854       0.24477059 </v>
   <v>       0.25283031       0.24626668       0.99609573 </v>
   <v>       0.00110438       0.99235309       0.50085106 </v>
   <v>       0.99430055       0.25229377       0.75333243 </v>
   <v>       0.24949653       0.00808157       0.75257539 </v>
   <v>       0.26760591       0.24223201       0.49745721 </v>
   <v>       0.99390663       0.50257451       0.99580466 </v>
   <v>       0.00723007       0.75594771       0.25328120 </v>
   <v>       0.25177430       0.49285685       0.25027265 </v>
   <v>       0.24656460       0.75278401       0.00520017 </v>
   <v>       0.99470869       0.50333573       0.49590694 </v>
   <v>       0.00431358       0.75647830       0.74754625 </v>
   <v>       0.25749943       0.49750509       0.74826344 </v>
   <v>       0.24591855       0.75617795       0.50052662 </v>
   <v>       0.49288835       0.00537314       0.99970832 </v>
   <v>       0.50127132       0.24985377       0.24796478 </v>
   <v>       0.75830777       0.00079433       0.23982955 </v>
   <v>       0.75846755       0.25594047       0.01602089 </v>
   <v>       0.50269305       0.99444574       0.49739611 </v>
   <v>       0.49976690       0.25116665       0.74949167 </v>
   <v>       0.74633410       0.00576040       0.74509659 </v>
   <v>       0.75163276       0.25638907       0.49797339 </v>
   <v>       0.49693962       0.49127134       0.00182439 </v>
   <v>       0.50012909       0.74412570       0.25031133 </v>
   <v>       0.74173010       0.50466748       0.25177613 </v>
   <v>       0.75623120       0.75118898       0.00087094 </v>
   <v>       0.49814953       0.50356582       0.49598007 </v>
   <v>       0.49766582       0.74102852       0.75472346 </v>
   <v>       0.74048400       0.50293208       0.76149961 </v>
   <v>       0.75635530       0.75295894       0.50187402 </v>
  </varray>
 </structure>
</modeling>
