unknown system                          
           1
     8.743316    0.000000    0.000000
     0.000000    8.743316    0.000000
     0.000000    0.000000    8.743316
   C    Si
    32    32
Direct configuration=     1
   0.11883216  0.12649571  0.12489568
   0.11770393  0.37041755  0.36762243
   0.37872850  0.12102655  0.36673085
   0.37578044  0.37748231  0.11875414
   0.12911494  0.13081763  0.63094491
   0.12825617  0.37419297  0.87218582
   0.36928332  0.12402025  0.87772144
   0.38128843  0.37391135  0.62530518
   0.12102541  0.61829640  0.12463532
   0.12497142  0.87529446  0.37005070
   0.37588984  0.62434219  0.36769116
   0.37653863  0.88089585  0.12274367
   0.12038323  0.62183200  0.62483055
   0.12864314  0.87821043  0.88315701
   0.37443702  0.62457600  0.87994366
   0.36657035  0.87524740  0.62152222
   0.63063836  0.12025364  0.12946815
   0.62066277  0.37069441  0.37372639
   0.86334177  0.12319973  0.38138113
   0.87502583  0.37311578  0.12708098
   0.62245719  0.12326470  0.62098192
   0.62080342  0.37569682  0.87372806
   0.87518509  0.11824036  0.87602198
   0.87963063  0.37504246  0.62276018
   0.62012934  0.62824673  0.13048119
   0.62871062  0.87055977  0.37306021
   0.87222631  0.62783400  0.36803032
   0.86963587  0.87209026  0.13299342
   0.61818464  0.62766523  0.62184453
   0.62582477  0.87421887  0.87834530
   0.88194116  0.61485399  0.88019460
   0.89108475  0.87683305  0.61197061
   0.99575220  0.99766094  0.99734648
   0.00926989  0.24886154  0.25344192
   0.24657720  0.00052854  0.24477059
   0.25283031  0.24626668  0.99609573
   0.00110438  0.99235309  0.50085106
   0.99430055  0.25229377  0.75333243
   0.24949653  0.00808157  0.75257539
   0.26760591  0.24223201  0.49745721
   0.99390663  0.50257451  0.99580466
   0.00723007  0.75594771  0.25328120
   0.25177430  0.49285685  0.25027265
   0.24656460  0.75278401  0.00520017
   0.99470869  0.50333573  0.49590694
   0.00431358  0.75647830  0.74754625
   0.25749943  0.49750509  0.74826344
   0.24591855  0.75617795  0.50052662
   0.49288835  0.00537314  0.99970832
   0.50127132  0.24985377  0.24796478
   0.75830777  0.00079433  0.23982955
   0.75846755  0.25594047  0.01602089
   0.50269305  0.99444574  0.49739611
   0.49976690  0.25116665  0.74949167
   0.74633410  0.00576040  0.74509659
   0.75163276  0.25638907  0.49797339
   0.49693962  0.49127134  0.00182439
   0.50012909  0.74412570  0.25031133
   0.74173010  0.50466748  0.25177613
   0.75623120  0.75118898  0.00087094
   0.49814953  0.50356582  0.49598007
   0.49766582  0.74102852  0.75472346
   0.74048400  0.50293208  0.76149961
   0.75635530  0.75295894  0.50187402
