       N       E                     dE             d eps       ncg     rms          rms(c)
DAV:   1     0.669517322351E+03    0.66952E+03   -0.99557E+04  4704   0.111E+03
DAV:   2    -0.462779910232E+03   -0.11323E+04   -0.10731E+04  5832   0.221E+02
DAV:   3    -0.537669016530E+03   -0.74889E+02   -0.74195E+02  5664   0.560E+01
DAV:   4    -0.539319941457E+03   -0.16509E+01   -0.16440E+01  5704   0.903E+00
DAV:   5    -0.539365649278E+03   -0.45708E-01   -0.45636E-01  5560   0.143E+00    0.492E+01
DAV:   6    -0.482637282781E+03    0.56728E+02   -0.19043E+02  5344   0.235E+01    0.218E+01
DAV:   7    -0.481281781198E+03    0.13555E+01   -0.15710E+01  5872   0.703E+00    0.974E+00
DAV:   8    -0.481053189125E+03    0.22859E+00   -0.10223E+00  5392   0.197E+00    0.262E+00
DAV:   9    -0.481036574871E+03    0.16614E-01   -0.14347E-01  5488   0.819E-01    0.439E-01
DAV:  10    -0.481039623914E+03   -0.30490E-02   -0.14306E-02  5744   0.263E-01    0.244E-01
DAV:  11    -0.481040617407E+03   -0.99349E-03   -0.19454E-03  5208   0.112E-01    0.912E-02
DAV:  12    -0.481040682938E+03   -0.65531E-04   -0.37416E-04  6312   0.470E-02    0.410E-02
DAV:  13    -0.481040695517E+03   -0.12579E-04   -0.87977E-05  5112   0.219E-02    0.105E-02
DAV:  14    -0.481040701818E+03   -0.63015E-05   -0.67285E-06  5456   0.596E-03    0.528E-03
DAV:  15    -0.481040703539E+03   -0.17206E-05   -0.21377E-06  5776   0.323E-03    0.408E-03
DAV:  16    -0.481040703283E+03    0.25590E-06   -0.28609E-07  5832   0.139E-03    0.132E-03
DAV:  17    -0.481040703622E+03   -0.33903E-06   -0.10288E-07  5272   0.695E-04    0.639E-04
DAV:  18    -0.481040703661E+03   -0.38926E-07   -0.58681E-09  2768   0.208E-04    0.281E-04
DAV:  19    -0.481040703637E+03    0.24327E-07   -0.43648E-09  2688   0.149E-04    0.974E-05
DAV:  20    -0.481040703641E+03   -0.40054E-08   -0.66367E-10  2688   0.755E-05
   1 F= -.48104070E+03 E0= -.48104402E+03  d E =0.993451E-02
