<?xml version="1.0" encoding="ISO-8859-1"?>
<modeling>
 <generator>
  <i name="program" type="string">vasp </i>
  <i name="version" type="string">6.2.1  </i>
  <i name="subversion" type="string">16May21 (build Jun 06 2020 10:27:25) complex                          parallel </i>
  <i name="platform" type="string">LinuxIFC </i>
  <i name="date" type="string">2024 01 12 </i>
  <i name="time" type="string">17:58:01 </i>
 </generator>
 <incar>
  <i type="int" name="NELM">    60</i>
  <i type="int" name="IBRION">     1</i>
  <i name="EDIFF">      0.00000001</i>
  <i type="int" name="NSW">     0</i>
  <i type="int" name="ISIF">     3</i>
  <i type="int" name="ISYM">     0</i>
  <i type="logical" name="LWAVE"> F  </i>
  <i type="logical" name="LCHARG"> F  </i>
  <i type="string" name="GGA">PE</i>
 </incar>
 <primitive_cell>
  <structure name="primitive_cell" >
   <crystal>
    <varray name="basis" >
     <v>       8.74331558       0.00000000       0.00000000 </v>
     <v>       0.00000000       8.74331558       0.00000000 </v>
     <v>       0.00000000       0.00000000       8.74331558 </v>
    </varray>
    <i name="volume">    668.38771987 </i>
    <varray name="rec_basis" >
     <v>       0.11437309       0.00000000       0.00000000 </v>
     <v>       0.00000000       0.11437309       0.00000000 </v>
     <v>       0.00000000       0.00000000       0.11437309 </v>
    </varray>
   </crystal>
   <varray name="positions" >
    <v>       0.12730239       0.12369075       0.12588633 </v>
    <v>       0.12566814       0.37454800       0.37484299 </v>
    <v>       0.37654498       0.12602440       0.37446328 </v>
    <v>       0.37626314       0.37067697       0.12757594 </v>
    <v>       0.12598153       0.12667527       0.62422628 </v>
    <v>       0.12288974       0.37641092       0.87104146 </v>
    <v>       0.37672165       0.12601965       0.87522317 </v>
    <v>       0.37564281       0.37491076       0.62496527 </v>
    <v>       0.12296120       0.62563287       0.12896984 </v>
    <v>       0.12395120       0.87536419       0.37591474 </v>
    <v>       0.37375844       0.62389404       0.37592123 </v>
    <v>       0.37808518       0.87539410       0.12594450 </v>
    <v>       0.12475199       0.62497896       0.61991655 </v>
    <v>       0.12615053       0.87467291       0.87213753 </v>
    <v>       0.37444246       0.62603166       0.88037792 </v>
    <v>       0.37524050       0.87292308       0.62334783 </v>
    <v>       0.62375166       0.12198099       0.12110556 </v>
    <v>       0.62944428       0.37044014       0.37248236 </v>
    <v>       0.87810760       0.12596045       0.37515626 </v>
    <v>       0.87280823       0.37487748       0.12433586 </v>
    <v>       0.63044144       0.12588975       0.62016421 </v>
    <v>       0.62733628       0.37653125       0.87754527 </v>
    <v>       0.87503047       0.12408615       0.87151493 </v>
    <v>       0.87359875       0.37393589       0.62489075 </v>
    <v>       0.62027752       0.62464341       0.12473388 </v>
    <v>       0.62631391       0.88053631       0.37372681 </v>
    <v>       0.87312806       0.62814387       0.37336012 </v>
    <v>       0.87199594       0.87332886       0.12387241 </v>
    <v>       0.62609765       0.62709416       0.62542312 </v>
    <v>       0.62568809       0.87082545       0.87965994 </v>
    <v>       0.87639226       0.62563271       0.87748393 </v>
    <v>       0.87533673       0.87419280       0.62763697 </v>
    <v>       0.99831280       0.00404621       0.00016833 </v>
    <v>       0.99858760       0.25802321       0.25164980 </v>
    <v>       0.25038684       0.00264561       0.25029830 </v>
    <v>       0.24696883       0.25086910       0.99992835 </v>
    <v>       0.99512015       0.00026775       0.49848875 </v>
    <v>       0.99947064       0.25165666       0.74768519 </v>
    <v>       0.25146770       0.00429557       0.75033919 </v>
    <v>       0.25276317       0.25427842       0.50223644 </v>
    <v>       0.99941812       0.49927713       0.00225644 </v>
    <v>       0.99678597       0.74638020       0.24891055 </v>
    <v>       0.25126217       0.49929025       0.24693440 </v>
    <v>       0.24794582       0.74853656       0.99626132 </v>
    <v>       0.99646459       0.50292057       0.49420825 </v>
    <v>       0.99882391       0.74898726       0.74978620 </v>
    <v>       0.25218680       0.50194122       0.75003976 </v>
    <v>       0.24591895       0.74842790       0.49762273 </v>
    <v>       0.50016849       0.00277383       0.99677187 </v>
    <v>       0.50250216       0.25106515       0.25226518 </v>
    <v>       0.74685330       0.99546770       0.24681626 </v>
    <v>       0.75477567       0.25299197       0.99564927 </v>
    <v>       0.50013709       0.99875481       0.49829006 </v>
    <v>       0.49891276       0.24963451       0.74472332 </v>
    <v>       0.75213561       0.99840976       0.74723863 </v>
    <v>       0.75358664       0.24979637       0.49901228 </v>
    <v>       0.50203894       0.49968045       0.00084277 </v>
    <v>       0.49843016       0.74943916       0.24832854 </v>
    <v>       0.74904239       0.50301591       0.24662550 </v>
    <v>       0.74984170       0.75329621       0.99992746 </v>
    <v>       0.49506648       0.50252907       0.49748926 </v>
    <v>       0.50083908       0.74749295       0.74967618 </v>
    <v>       0.75135909       0.49959198       0.74824455 </v>
    <v>       0.74916385       0.74824755       0.50498128 </v>
   </varray>
  </structure>
  <varray name="primitive_index" >
   <v type="int" >        1 </v>
   <v type="int" >        2 </v>
   <v type="int" >        3 </v>
   <v type="int" >        4 </v>
   <v type="int" >        5 </v>
   <v type="int" >        6 </v>
   <v type="int" >        7 </v>
   <v type="int" >        8 </v>
   <v type="int" >        9 </v>
   <v type="int" >       10 </v>
   <v type="int" >       11 </v>
   <v type="int" >       12 </v>
   <v type="int" >       13 </v>
   <v type="int" >       14 </v>
   <v type="int" >       15 </v>
   <v type="int" >       16 </v>
   <v type="int" >       17 </v>
   <v type="int" >       18 </v>
   <v type="int" >       19 </v>
   <v type="int" >       20 </v>
   <v type="int" >       21 </v>
   <v type="int" >       22 </v>
   <v type="int" >       23 </v>
   <v type="int" >       24 </v>
   <v type="int" >       25 </v>
   <v type="int" >       26 </v>
   <v type="int" >       27 </v>
   <v type="int" >       28 </v>
   <v type="int" >       29 </v>
   <v type="int" >       30 </v>
   <v type="int" >       31 </v>
   <v type="int" >       32 </v>
   <v type="int" >       33 </v>
   <v type="int" >       34 </v>
   <v type="int" >       35 </v>
   <v type="int" >       36 </v>
   <v type="int" >       37 </v>
   <v type="int" >       38 </v>
   <v type="int" >       39 </v>
   <v type="int" >       40 </v>
   <v type="int" >       41 </v>
   <v type="int" >       42 </v>
   <v type="int" >       43 </v>
   <v type="int" >       44 </v>
   <v type="int" >       45 </v>
   <v type="int" >       46 </v>
   <v type="int" >       47 </v>
   <v type="int" >       48 </v>
   <v type="int" >       49 </v>
   <v type="int" >       50 </v>
   <v type="int" >       51 </v>
   <v type="int" >       52 </v>
   <v type="int" >       53 </v>
   <v type="int" >       54 </v>
   <v type="int" >       55 </v>
   <v type="int" >       56 </v>
   <v type="int" >       57 </v>
   <v type="int" >       58 </v>
   <v type="int" >       59 </v>
   <v type="int" >       60 </v>
   <v type="int" >       61 </v>
   <v type="int" >       62 </v>
   <v type="int" >       63 </v>
   <v type="int" >       64 </v>
  </varray>
 </primitive_cell>
 <kpoints>
  <generation param="Monkhorst-Pack">
   <v type="int" name="divisions">       3        3        3 </v>
   <v name="usershift">      0.00000000       0.00000000       0.00000000 </v>
   <v name="genvec1">      0.33333333       0.00000000       0.00000000 </v>
   <v name="genvec2">      0.00000000       0.33333333       0.00000000 </v>
   <v name="genvec3">      0.00000000       0.00000000       0.33333333 </v>
   <v name="shift">      0.00000000       0.00000000       0.00000000 </v>
  </generation>
  <varray name="kpointlist" >
   <v>       0.00000000       0.00000000       0.00000000 </v>
   <v>       0.33333333       0.00000000       0.00000000 </v>
   <v>       0.00000000       0.33333333       0.00000000 </v>
   <v>       0.00000000       0.00000000       0.33333333 </v>
   <v>       0.33333333       0.33333333       0.00000000 </v>
   <v>       0.00000000       0.33333333       0.33333333 </v>
   <v>       0.33333333       0.00000000       0.33333333 </v>
   <v>      -0.33333333       0.33333333       0.00000000 </v>
   <v>      -0.33333333       0.00000000       0.33333333 </v>
   <v>       0.00000000      -0.33333333       0.33333333 </v>
   <v>       0.33333333       0.33333333       0.33333333 </v>
   <v>      -0.33333333       0.33333333       0.33333333 </v>
   <v>      -0.33333333      -0.33333333       0.33333333 </v>
   <v>       0.33333333      -0.33333333       0.33333333 </v>
  </varray>
  <varray name="weights" >
   <v>       0.03703704 </v>
   <v>       0.07407407 </v>
   <v>       0.07407407 </v>
   <v>       0.07407407 </v>
   <v>       0.07407407 </v>
   <v>       0.07407407 </v>
   <v>       0.07407407 </v>
   <v>       0.07407407 </v>
   <v>       0.07407407 </v>
   <v>       0.07407407 </v>
   <v>       0.07407407 </v>
   <v>       0.07407407 </v>
   <v>       0.07407407 </v>
   <v>       0.07407407 </v>
  </varray>
 </kpoints>
 <parameters>
  <separator name="general" >
   <i type="string" name="SYSTEM">unknown system</i>
   <i type="logical" name="LCOMPAT"> F  </i>
  </separator>
  <separator name="electronic" >
   <i type="string" name="PREC">normal</i>
   <i name="ENMAX">    400.00000000</i>
   <i name="ENAUG">    644.87300000</i>
   <i name="EDIFF">      0.00000001</i>
   <i type="int" name="IALGO">    38</i>
   <i type="int" name="IWAVPR">    10</i>
   <i type="int" name="NBANDS">   168</i>
   <i type="int" name="NBANDSLOW">    -1</i>
   <i type="int" name="NBANDSHIGH">    -1</i>
   <i name="NELECT">    256.00000000</i>
   <i type="int" name="TURBO">     0</i>
   <i type="int" name="IRESTART">     0</i>
   <i type="int" name="NREBOOT">     0</i>
   <i type="int" name="NMIN">     0</i>
   <i name="EREF">      0.00000000</i>
   <separator name="electronic smearing" >
    <i type="int" name="ISMEAR">     1</i>
    <i name="SIGMA">      0.20000000</i>
    <i name="KSPACING">      0.50000000</i>
    <i type="logical" name="KGAMMA"> T  </i>
    <i type="logical" name="KBLOWUP"> T  </i>
   </separator>
   <separator name="electronic projectors" >
    <i type="logical" name="LREAL"> F  </i>
    <v name="ROPT">      0.00000000      0.00000000</v>
    <i type="int" name="LMAXPAW">  -100</i>
    <i type="int" name="LMAXMIX">     2</i>
    <i type="logical" name="NLSPLINE"> F  </i>
   </separator>
   <separator name="electronic startup" >
    <i type="int" name="ISTART">     0</i>
    <i type="int" name="ICHARG">     2</i>
    <i type="int" name="INIWAV">     1</i>
   </separator>
   <separator name="electronic spin" >
    <i type="int" name="ISPIN">     1</i>
    <i type="logical" name="LNONCOLLINEAR"> F  </i>
    <v name="MAGMOM">      1.00000000      1.00000000      1.00000000      1.00000000      1.00000000      1.00000000      1.00000000      1.00000000      1.00000000      1.00000000      1.00000000      1.00000000      1.00000000      1.00000000      1.00000000      1.00000000      1.00000000      1.00000000      1.00000000      1.00000000
      1.00000000      1.00000000      1.00000000      1.00000000      1.00000000      1.00000000      1.00000000      1.00000000      1.00000000      1.00000000      1.00000000      1.00000000      1.00000000      1.00000000      1.00000000      1.00000000      1.00000000      1.00000000      1.00000000      1.00000000
      1.00000000      1.00000000      1.00000000      1.00000000      1.00000000      1.00000000      1.00000000      1.00000000      1.00000000      1.00000000      1.00000000      1.00000000      1.00000000      1.00000000      1.00000000      1.00000000      1.00000000      1.00000000      1.00000000      1.00000000
      1.00000000      1.00000000      1.00000000      1.00000000</v>
    <i name="NUPDOWN">     -1.00000000</i>
    <i type="logical" name="LSORBIT"> F  </i>
    <v name="SAXIS">      0.00000000      0.00000000      1.00000000</v>
    <i type="logical" name="LSPIRAL"> F  </i>
    <v name="QSPIRAL">      0.00000000      0.00000000      0.00000000</v>
    <i type="logical" name="LZEROZ"> F  </i>
   </separator>
   <separator name="electronic exchange-correlation" >
    <i type="logical" name="LASPH"> F  </i>
    <i type="logical" name="LMETAGGA"> F  </i>
   </separator>
   <separator name="electronic convergence" >
    <i type="int" name="NELM">    60</i>
    <i type="int" name="NELMDL">    -5</i>
    <i type="int" name="NELMIN">     2</i>
    <i name="ENINI">    400.00000000</i>
    <separator name="electronic convergence detail" >
     <i type="logical" name="LDIAG"> T  </i>
     <i type="logical" name="LSUBROT"> F  </i>
     <i name="WEIMIN">      0.00000000</i>
     <i name="EBREAK">      0.00000000</i>
     <i name="DEPER">      0.30000000</i>
     <i type="int" name="NRMM">     4</i>
     <i name="TIME">      0.40000000</i>
    </separator>
   </separator>
   <separator name="electronic mixer" >
    <i name="AMIX">      0.40000000</i>
    <i name="BMIX">      1.00000000</i>
    <i name="AMIN">      0.10000000</i>
    <i name="AMIX_MAG">      1.60000000</i>
    <i name="BMIX_MAG">      1.00000000</i>
    <separator name="electronic mixer details" >
     <i type="int" name="IMIX">     4</i>
     <i type="logical" name="MIXFIRST"> F  </i>
     <i type="int" name="MAXMIX">   -45</i>
     <i name="WC">    100.00000000</i>
     <i type="int" name="INIMIX">     1</i>
     <i type="int" name="MIXPRE">     1</i>
     <i type="int" name="MREMOVE">     5</i>
    </separator>
   </separator>
   <separator name="electronic dipolcorrection" >
    <i type="logical" name="LDIPOL"> F  </i>
    <i type="logical" name="LMONO"> F  </i>
    <i type="int" name="IDIPOL">     0</i>
    <i name="EPSILON">      1.00000000</i>
    <v name="DIPOL">   -100.00000000   -100.00000000   -100.00000000</v>
    <i name="EFIELD">      0.00000000</i>
   </separator>
  </separator>
  <separator name="grids" >
   <i type="int" name="NGX">    48</i>
   <i type="int" name="NGY">    48</i>
   <i type="int" name="NGZ">    48</i>
   <i type="int" name="NGXF">    96</i>
   <i type="int" name="NGYF">    96</i>
   <i type="int" name="NGZF">    96</i>
   <i type="logical" name="ADDGRID"> F  </i>
  </separator>
  <separator name="ionic" >
   <i type="int" name="NSW">     0</i>
   <i type="int" name="IBRION">    -1</i>
   <i type="int" name="MDALGO">     0</i>
   <i type="int" name="ISIF">     3</i>
   <i name="PSTRESS">      0.00000000</i>
   <i name="EDIFFG">      0.00000010</i>
   <i type="int" name="NFREE">     0</i>
   <i name="POTIM">      0.50000000</i>
   <i name="SMASS">     -3.00000000</i>
   <i name="SCALEE">      1.00000000</i>
  </separator>
  <separator name="ionic md" >
   <i name="TEBEG">      0.00010000</i>
   <i name="TEEND">      0.00010000</i>
   <i type="int" name="NBLOCK">     1</i>
   <i type="int" name="KBLOCK">     1</i>
   <i type="int" name="NPACO">   256</i>
   <i name="APACO">     16.00000000</i>
  </separator>
  <separator name="symmetry" >
   <i type="int" name="ISYM">     0</i>
   <i name="SYMPREC">      0.00001000</i>
  </separator>
  <separator name="dos" >
   <i type="int" name="LORBIT">     0</i>
   <v name="RWIGS">     -1.00000000     -1.00000000</v>
   <i type="int" name="NEDOS">   301</i>
   <i name="EMIN">     10.00000000</i>
   <i name="EMAX">    -10.00000000</i>
   <i name="EFERMI">      0.00000000</i>
  </separator>
  <separator name="writing" >
   <i type="int" name="NWRITE">     2</i>
   <i type="logical" name="LWAVE"> F  </i>
   <i type="logical" name="LDOWNSAMPLE"> F  </i>
   <i type="logical" name="LCHARG"> F  </i>
   <i type="logical" name="LPARD"> F  </i>
   <i type="logical" name="LVTOT"> F  </i>
   <i type="logical" name="LVHAR"> F  </i>
   <i type="logical" name="LELF"> F  </i>
   <i type="logical" name="LOPTICS"> F  </i>
   <v name="STM">      0.00000000      0.00000000      0.00000000      0.00000000      0.00000000      0.00000000      0.00000000</v>
  </separator>
  <separator name="performance" >
   <i type="int" name="NPAR">     8</i>
   <i type="int" name="NSIM">     4</i>
   <i type="int" name="NBLK">    -1</i>
   <i type="logical" name="LPLANE"> T  </i>
   <i type="logical" name="LSCALAPACK"> T  </i>
   <i type="logical" name="LSCAAWARE"> F  </i>
   <i type="logical" name="LSCALU"> F  </i>
   <i type="logical" name="LASYNC"> F  </i>
   <i type="logical" name="LORBITALREAL"> F  </i>
  </separator>
  <separator name="miscellaneous" >
   <i type="int" name="IDIOT">     3</i>
   <i type="int" name="PHON_NSTRUCT">    -1</i>
   <i type="logical" name="LMUSIC"> F  </i>
   <v name="POMASS">     12.01100000     28.08500000</v>
   <v name="DARWINR">      0.00000000      0.00000000</v>
   <v name="DARWINV">      1.00000000      1.00000000</v>
   <i type="logical" name="LCORR"> T  </i>
  </separator>
  <i type="logical" name="GGA_COMPAT"> T  </i>
  <i type="logical" name="LBERRY"> F  </i>
  <i type="int" name="ICORELEVEL">     0</i>
  <i type="logical" name="LDAU"> F  </i>
  <i type="int" name="I_CONSTRAINED_M">     0</i>
  <separator name="electronic exchange-correlation" >
   <i type="string" name="GGA">PE</i>
   <i type="int" name="VOSKOWN">     0</i>
   <i type="logical" name="LHFCALC"> F  </i>
   <i type="string" name="PRECFOCK"></i>
   <i type="logical" name="LSYMGRAD"> F  </i>
   <i type="logical" name="LHFONE"> F  </i>
   <i type="logical" name="LRHFCALC"> F  </i>
   <i type="logical" name="LTHOMAS"> F  </i>
   <i type="logical" name="LMODELHF"> F  </i>
   <i type="logical" name="LFOCKACE"> F  </i>
   <i name="ENCUT4O">     -1.00000000</i>
   <i type="int" name="EXXOEP">     0</i>
   <i type="int" name="FOURORBIT">     0</i>
   <i name="AEXX">      0.00000000</i>
   <i name="HFALPHA">      0.00000000</i>
   <i name="MCALPHA">      0.00000000</i>
   <i name="ALDAX">      1.00000000</i>
   <i name="AGGAX">      1.00000000</i>
   <i name="ALDAC">      1.00000000</i>
   <i name="AGGAC">      1.00000000</i>
   <i type="int" name="NKREDX">     1</i>
   <i type="int" name="NKREDY">     1</i>
   <i type="int" name="NKREDZ">     1</i>
   <i type="logical" name="SHIFTRED"> F  </i>
   <i type="logical" name="ODDONLY"> F  </i>
   <i type="logical" name="EVENONLY"> F  </i>
   <i type="int" name="LMAXFOCK">     0</i>
   <i type="int" name="NMAXFOCKAE">     0</i>
   <i type="logical" name="LFOCKAEDFT"> F  </i>
   <i name="HFSCREEN">      0.00000000</i>
   <i name="HFSCREENC">      0.00000000</i>
   <i type="int" name="NBANDSGWLOW">     0</i>
  </separator>
  <separator name="vdW DFT" >
   <i type="logical" name="LUSE_VDW"> F  </i>
   <i name="Zab_VDW">     -0.84910000</i>
   <i name="PARAM1">      0.12340000</i>
   <i name="PARAM2">      1.00000000</i>
   <i name="PARAM3">      0.00000000</i>
  </separator>
  <separator name="model GW" >
   <i type="int" name="MODEL_GW">     0</i>
   <i name="MODEL_EPS0">      6.26613487</i>
   <i name="MODEL_ALPHA">      1.00000000</i>
  </separator>
  <separator name="linear response parameters" >
   <i type="logical" name="LEPSILON"> F  </i>
   <i type="logical" name="LRPA"> F  </i>
   <i type="logical" name="LNABLA"> F  </i>
   <i type="logical" name="LVEL"> F  </i>
   <i type="int" name="KINTER">     0</i>
   <i name="CSHIFT">      0.10000000</i>
   <i name="OMEGAMAX">     -1.00000000</i>
   <i name="DEG_THRESHOLD">      0.00200000</i>
   <i name="RTIME">     -0.10000000</i>
   <i name="WPLASMAI">      0.00000000</i>
   <v name="DFIELD">      0.00000000      0.00000000      0.00000000</v>
   <v name="WPLASMA">      0.00000000      0.00000000      0.00000000      0.00000000      0.00000000      0.00000000      0.00000000      0.00000000      0.00000000</v>
  </separator>
  <separator name="orbital magnetization" >
   <i type="logical" name="NUCIND"> F  </i>
   <v name="MAGPOS">      0.00000000      0.00000000      0.00000000</v>
   <i type="logical" name="LNICSALL"> T  </i>
   <i type="logical" name="ORBITALMAG"> F  </i>
   <i type="logical" name="LMAGBLOCH"> F  </i>
   <i type="logical" name="LCHIMAG"> F  </i>
   <i type="logical" name="LGAUGE"> T  </i>
   <i type="int" name="MAGATOM">     0</i>
   <v name="MAGDIPOL">      0.00000000      0.00000000      0.00000000</v>
   <v name="AVECCONST">      0.00000000      0.00000000      0.00000000</v>
  </separator>
  <separator name="response functions" >
   <i type="logical" name="LFINITE_TEMPERATURE"> F  </i>
   <i type="logical" name="LADDER"> F  </i>
   <i type="logical" name="LRPAFORCE"> F  </i>
   <i type="logical" name="LFXC"> F  </i>
   <i type="logical" name="LHARTREE"> T  </i>
   <i type="int" name="IBSE">     0</i>
   <v type="int" name="KPOINT">    -1     0     0     0</v>
   <i type="logical" name="LTCTC"> F  </i>
   <i type="logical" name="LTCTE"> F  </i>
   <i type="logical" name="LTETE"> F  </i>
   <i type="logical" name="LTRIPLET"> F  </i>
   <i type="logical" name="LFXCEPS"> F  </i>
   <i type="logical" name="LFXHEG"> F  </i>
   <i type="int" name="NATURALO">     2</i>
   <i type="logical" name="LHOLEGF"> F  </i>
   <i type="logical" name="L2ORDER"> F  </i>
   <i type="logical" name="LDMP1"> F  </i>
   <i type="logical" name="LMP2LT"> F  </i>
   <i type="logical" name="LSMP2LT"> F  </i>
   <i type="logical" name="LGWLF"> F  </i>
   <i name="ENCUTGW">     -2.00000000</i>
   <i name="ENCUTGWSOFT">     -2.00000000</i>
   <i name="ENCUTLF">     -1.00000000</i>
   <i type="logical" name="LESF_SPLINES"> F  </i>
   <i type="int" name="LMAXMP2">    -1</i>
   <i name="SCISSOR">      0.00000000</i>
   <i type="int" name="NOMEGA">     0</i>
   <i type="int" name="NOMEGAR">     0</i>
   <i type="int" name="NBANDSGW">    -1</i>
   <i type="int" name="NBANDSO">    -1</i>
   <i type="int" name="NBANDSV">    -1</i>
   <i type="int" name="NELM">    60</i>
   <i type="int" name="NELMHF">     1</i>
   <i type="int" name="DIM">     3</i>
   <i type="int" name="IESPILON">     4</i>
   <i type="int" name="ANTIRES">     0</i>
   <i name="OMEGAMAX">    -30.00000000</i>
   <i name="OMEGAMIN">    -30.00000000</i>
   <i name="OMEGATL">   -200.00000000</i>
   <i type="int" name="OMEGAGRID">     0</i>
   <i name="CSHIFT">     -0.10000000</i>
   <i type="logical" name="LSELFENERGY"> F  </i>
   <i type="logical" name="LSPECTRAL"> F  </i>
   <i type="logical" name="LSPECTRALGW"> F  </i>
   <i type="logical" name="LSINGLES"> F  </i>
   <i type="logical" name="LFERMIGW"> F  </i>
   <i type="logical" name="ODDONLYGW"> F  </i>
   <i type="logical" name="EVENONLYGW"> F  </i>
   <i type="int" name="NKREDLFX">     1</i>
   <i type="int" name="NKREDLFY">     1</i>
   <i type="int" name="NKREDLFZ">     1</i>
   <i type="int" name="MAXMEM">  2800</i>
   <i type="int" name="TELESCOPE">     0</i>
   <i type="int" name="NTAUPAR">    -1</i>
   <i type="int" name="NOMEGAPAR">    -1</i>
   <i name="DAMP_NEWTON">      0.80000001</i>
   <i name="LAMBDA">      1.00000000</i>
  </separator>
  <separator name="External order field" >
   <i name="OFIELD_KAPPA">      0.00000000</i>
   <v name="OFIELD_K">      0.00000000      0.00000000      0.00000000</v>
   <i name="OFIELD_Q6_NEAR">      0.00000000</i>
   <i name="OFIELD_Q6_FAR">      0.00000000</i>
   <i name="OFIELD_A">      0.00000000</i>
  </separator>
 </parameters>
 <atominfo>
  <atoms>      64 </atoms>
  <types>       2 </types>
  <array name="atoms" >
   <dimension dim="1">ion</dimension>
   <field type="string">element</field>
   <field type="int">atomtype</field>
   <set>
    <rc><c>C </c><c>   1</c></rc>
    <rc><c>C </c><c>   1</c></rc>
    <rc><c>C </c><c>   1</c></rc>
    <rc><c>C </c><c>   1</c></rc>
    <rc><c>C </c><c>   1</c></rc>
    <rc><c>C </c><c>   1</c></rc>
    <rc><c>C </c><c>   1</c></rc>
    <rc><c>C </c><c>   1</c></rc>
    <rc><c>C </c><c>   1</c></rc>
    <rc><c>C </c><c>   1</c></rc>
    <rc><c>C </c><c>   1</c></rc>
    <rc><c>C </c><c>   1</c></rc>
    <rc><c>C </c><c>   1</c></rc>
    <rc><c>C </c><c>   1</c></rc>
    <rc><c>C </c><c>   1</c></rc>
    <rc><c>C </c><c>   1</c></rc>
    <rc><c>C </c><c>   1</c></rc>
    <rc><c>C </c><c>   1</c></rc>
    <rc><c>C </c><c>   1</c></rc>
    <rc><c>C </c><c>   1</c></rc>
    <rc><c>C </c><c>   1</c></rc>
    <rc><c>C </c><c>   1</c></rc>
    <rc><c>C </c><c>   1</c></rc>
    <rc><c>C </c><c>   1</c></rc>
    <rc><c>C </c><c>   1</c></rc>
    <rc><c>C </c><c>   1</c></rc>
    <rc><c>C </c><c>   1</c></rc>
    <rc><c>C </c><c>   1</c></rc>
    <rc><c>C </c><c>   1</c></rc>
    <rc><c>C </c><c>   1</c></rc>
    <rc><c>C </c><c>   1</c></rc>
    <rc><c>C </c><c>   1</c></rc>
    <rc><c>Si</c><c>   2</c></rc>
    <rc><c>Si</c><c>   2</c></rc>
    <rc><c>Si</c><c>   2</c></rc>
    <rc><c>Si</c><c>   2</c></rc>
    <rc><c>Si</c><c>   2</c></rc>
    <rc><c>Si</c><c>   2</c></rc>
    <rc><c>Si</c><c>   2</c></rc>
    <rc><c>Si</c><c>   2</c></rc>
    <rc><c>Si</c><c>   2</c></rc>
    <rc><c>Si</c><c>   2</c></rc>
    <rc><c>Si</c><c>   2</c></rc>
    <rc><c>Si</c><c>   2</c></rc>
    <rc><c>Si</c><c>   2</c></rc>
    <rc><c>Si</c><c>   2</c></rc>
    <rc><c>Si</c><c>   2</c></rc>
    <rc><c>Si</c><c>   2</c></rc>
    <rc><c>Si</c><c>   2</c></rc>
    <rc><c>Si</c><c>   2</c></rc>
    <rc><c>Si</c><c>   2</c></rc>
    <rc><c>Si</c><c>   2</c></rc>
    <rc><c>Si</c><c>   2</c></rc>
    <rc><c>Si</c><c>   2</c></rc>
    <rc><c>Si</c><c>   2</c></rc>
    <rc><c>Si</c><c>   2</c></rc>
    <rc><c>Si</c><c>   2</c></rc>
    <rc><c>Si</c><c>   2</c></rc>
    <rc><c>Si</c><c>   2</c></rc>
    <rc><c>Si</c><c>   2</c></rc>
    <rc><c>Si</c><c>   2</c></rc>
    <rc><c>Si</c><c>   2</c></rc>
    <rc><c>Si</c><c>   2</c></rc>
    <rc><c>Si</c><c>   2</c></rc>
   </set>
  </array>
  <array name="atomtypes" >
   <dimension dim="1">type</dimension>
   <field type="int">atomspertype</field>
   <field type="string">element</field>
   <field>mass</field>
   <field>valence</field>
   <field type="string">pseudopotential</field>
   <set>
    <rc><c>  32</c><c>C </c><c>     12.01100000</c><c>      4.00000000</c><c>  PAW_PBE C 08Apr2002                   </c></rc>
    <rc><c>  32</c><c>Si</c><c>     28.08500000</c><c>      4.00000000</c><c>  PAW_PBE Si 05Jan2001                  </c></rc>
   </set>
  </array>
 </atominfo>
 <structure name="initialpos" >
  <crystal>
   <varray name="basis" >
    <v>       8.74331558       0.00000000       0.00000000 </v>
    <v>       0.00000000       8.74331558       0.00000000 </v>
    <v>       0.00000000       0.00000000       8.74331558 </v>
   </varray>
   <i name="volume">    668.38771987 </i>
   <varray name="rec_basis" >
    <v>       0.11437309       0.00000000       0.00000000 </v>
    <v>       0.00000000       0.11437309       0.00000000 </v>
    <v>       0.00000000       0.00000000       0.11437309 </v>
   </varray>
  </crystal>
  <varray name="positions" >
   <v>       0.12730239       0.12369075       0.12588633 </v>
   <v>       0.12566814       0.37454800       0.37484299 </v>
   <v>       0.37654498       0.12602440       0.37446328 </v>
   <v>       0.37626314       0.37067697       0.12757594 </v>
   <v>       0.12598153       0.12667527       0.62422628 </v>
   <v>       0.12288974       0.37641092       0.87104146 </v>
   <v>       0.37672165       0.12601965       0.87522317 </v>
   <v>       0.37564281       0.37491076       0.62496527 </v>
   <v>       0.12296120       0.62563287       0.12896984 </v>
   <v>       0.12395120       0.87536419       0.37591474 </v>
   <v>       0.37375844       0.62389404       0.37592123 </v>
   <v>       0.37808518       0.87539410       0.12594450 </v>
   <v>       0.12475199       0.62497896       0.61991655 </v>
   <v>       0.12615053       0.87467291       0.87213753 </v>
   <v>       0.37444246       0.62603166       0.88037792 </v>
   <v>       0.37524050       0.87292308       0.62334783 </v>
   <v>       0.62375166       0.12198099       0.12110556 </v>
   <v>       0.62944428       0.37044014       0.37248236 </v>
   <v>       0.87810760       0.12596045       0.37515626 </v>
   <v>       0.87280823       0.37487748       0.12433586 </v>
   <v>       0.63044144       0.12588975       0.62016421 </v>
   <v>       0.62733628       0.37653125       0.87754527 </v>
   <v>       0.87503047       0.12408615       0.87151493 </v>
   <v>       0.87359875       0.37393589       0.62489075 </v>
   <v>       0.62027752       0.62464341       0.12473388 </v>
   <v>       0.62631391       0.88053631       0.37372681 </v>
   <v>       0.87312806       0.62814387       0.37336012 </v>
   <v>       0.87199594       0.87332886       0.12387241 </v>
   <v>       0.62609765       0.62709416       0.62542312 </v>
   <v>       0.62568809       0.87082545       0.87965994 </v>
   <v>       0.87639226       0.62563271       0.87748393 </v>
   <v>       0.87533673       0.87419280       0.62763697 </v>
   <v>       0.99831280       0.00404621       0.00016833 </v>
   <v>       0.99858760       0.25802321       0.25164980 </v>
   <v>       0.25038684       0.00264561       0.25029830 </v>
   <v>       0.24696883       0.25086910       0.99992835 </v>
   <v>       0.99512015       0.00026775       0.49848875 </v>
   <v>       0.99947064       0.25165666       0.74768519 </v>
   <v>       0.25146770       0.00429557       0.75033919 </v>
   <v>       0.25276317       0.25427842       0.50223644 </v>
   <v>       0.99941812       0.49927713       0.00225644 </v>
   <v>       0.99678597       0.74638020       0.24891055 </v>
   <v>       0.25126217       0.49929025       0.24693440 </v>
   <v>       0.24794582       0.74853656       0.99626132 </v>
   <v>       0.99646459       0.50292057       0.49420825 </v>
   <v>       0.99882391       0.74898726       0.74978620 </v>
   <v>       0.25218680       0.50194122       0.75003976 </v>
   <v>       0.24591895       0.74842790       0.49762273 </v>
   <v>       0.50016849       0.00277383       0.99677187 </v>
   <v>       0.50250216       0.25106515       0.25226518 </v>
   <v>       0.74685330       0.99546770       0.24681626 </v>
   <v>       0.75477567       0.25299197       0.99564927 </v>
   <v>       0.50013709       0.99875481       0.49829006 </v>
   <v>       0.49891276       0.24963451       0.74472332 </v>
   <v>       0.75213561       0.99840976       0.74723863 </v>
   <v>       0.75358664       0.24979637       0.49901228 </v>
   <v>       0.50203894       0.49968045       0.00084277 </v>
   <v>       0.49843016       0.74943916       0.24832854 </v>
   <v>       0.74904239       0.50301591       0.24662550 </v>
   <v>       0.74984170       0.75329621       0.99992746 </v>
   <v>       0.49506648       0.50252907       0.49748926 </v>
   <v>       0.50083908       0.74749295       0.74967618 </v>
   <v>       0.75135909       0.49959198       0.74824455 </v>
   <v>       0.74916385       0.74824755       0.50498128 </v>
  </varray>
 </structure>
 <calculation>
  <scstep>
   <time name="dav">   14.97   15.02</time>
   <time name="total">   15.31   15.36</time>
   <energy>
    <i name="alphaZ">    354.85177120 </i>
    <i name="ewald">  -9080.64640355 </i>
    <i name="hartreedc">   -672.13873739 </i>
    <i name="XCdc">    145.85681752 </i>
    <i name="pawpsdc">   6292.66707184 </i>
    <i name="pawaedc">  -5747.90303932 </i>
    <i name="eentropy">      0.00736410 </i>
    <i name="bandstr">   1370.64743475 </i>
    <i name="atom">   8006.17504320 </i>
    <i name="e_fr_energy">    669.51732235 </i>
    <i name="e_wo_entrp">    669.50995825 </i>
    <i name="e_0_energy">    669.51486765 </i>
   </energy>
  </scstep>
  <scstep>
   <time name="dav">   30.50   30.56</time>
   <time name="total">   30.50   30.56</time>
   <energy>
    <i name="e_fr_energy">   -462.77991023 </i>
    <i name="e_wo_entrp">   -462.79842150 </i>
    <i name="e_0_energy">   -462.78608066 </i>
   </energy>
  </scstep>
  <scstep>
   <time name="dav">   16.45   16.63</time>
   <time name="total">   16.46   16.63</time>
   <energy>
    <i name="e_fr_energy">   -537.66901653 </i>
    <i name="e_wo_entrp">   -537.68959700 </i>
    <i name="e_0_energy">   -537.67587669 </i>
   </energy>
  </scstep>
  <scstep>
   <time name="dav">   15.84   15.93</time>
   <time name="total">   15.85   15.94</time>
   <energy>
    <i name="e_fr_energy">   -539.31994146 </i>
    <i name="e_wo_entrp">   -539.34133450 </i>
    <i name="e_0_energy">   -539.32707247 </i>
   </energy>
  </scstep>
  <scstep>
   <time name="dav">   15.49   15.56</time>
   <time name="total">   15.74   15.80</time>
   <energy>
    <i name="e_fr_energy">   -539.36564928 </i>
    <i name="e_wo_entrp">   -539.38699132 </i>
    <i name="e_0_energy">   -539.37276329 </i>
   </energy>
  </scstep>
  <scstep>
   <time name="dav">   15.15   15.20</time>
   <time name="total">   15.65   15.70</time>
   <energy>
    <i name="e_fr_energy">   -482.63728278 </i>
    <i name="e_wo_entrp">   -482.64819290 </i>
    <i name="e_0_energy">   -482.64091949 </i>
   </energy>
  </scstep>
  <scstep>
   <time name="dav">   18.49   18.60</time>
   <time name="total">   19.16   19.29</time>
   <energy>
    <i name="e_fr_energy">   -481.28178120 </i>
    <i name="e_wo_entrp">   -481.29163950 </i>
    <i name="e_0_energy">   -481.28506730 </i>
   </energy>
  </scstep>
  <scstep>
   <time name="dav">   15.81   15.84</time>
   <time name="total">   16.43   16.50</time>
   <energy>
    <i name="e_fr_energy">   -481.05318913 </i>
    <i name="e_wo_entrp">   -481.06322230 </i>
    <i name="e_0_energy">   -481.05653352 </i>
   </energy>
  </scstep>
  <scstep>
   <time name="dav">   15.35   15.37</time>
   <time name="total">   15.73   15.75</time>
   <energy>
    <i name="e_fr_energy">   -481.03657487 </i>
    <i name="e_wo_entrp">   -481.04650590 </i>
    <i name="e_0_energy">   -481.03988521 </i>
   </energy>
  </scstep>
  <scstep>
   <time name="dav">   15.95   15.98</time>
   <time name="total">   16.33   16.36</time>
   <energy>
    <i name="e_fr_energy">   -481.03962391 </i>
    <i name="e_wo_entrp">   -481.04956197 </i>
    <i name="e_0_energy">   -481.04293660 </i>
   </energy>
  </scstep>
  <scstep>
   <time name="dav">   14.90   14.93</time>
   <time name="total">   15.28   15.34</time>
   <energy>
    <i name="e_fr_energy">   -481.04061741 </i>
    <i name="e_wo_entrp">   -481.05055596 </i>
    <i name="e_0_energy">   -481.04393026 </i>
   </energy>
  </scstep>
  <scstep>
   <time name="dav">   17.56   17.59</time>
   <time name="total">   18.24   18.31</time>
   <energy>
    <i name="e_fr_energy">   -481.04068294 </i>
    <i name="e_wo_entrp">   -481.05061564 </i>
    <i name="e_0_energy">   -481.04399384 </i>
   </energy>
  </scstep>
  <scstep>
   <time name="dav">   14.48   14.51</time>
   <time name="total">   14.86   14.89</time>
   <energy>
    <i name="e_fr_energy">   -481.04069552 </i>
    <i name="e_wo_entrp">   -481.05063032 </i>
    <i name="e_0_energy">   -481.04400712 </i>
   </energy>
  </scstep>
  <scstep>
   <time name="dav">   15.31   15.37</time>
   <time name="total">   15.69   15.76</time>
   <energy>
    <i name="e_fr_energy">   -481.04070182 </i>
    <i name="e_wo_entrp">   -481.05063643 </i>
    <i name="e_0_energy">   -481.04401335 </i>
   </energy>
  </scstep>
  <scstep>
   <time name="dav">   15.87   15.90</time>
   <time name="total">   16.51   16.56</time>
   <energy>
    <i name="e_fr_energy">   -481.04070354 </i>
    <i name="e_wo_entrp">   -481.05063803 </i>
    <i name="e_0_energy">   -481.04401504 </i>
   </energy>
  </scstep>
  <scstep>
   <time name="dav">   15.94   16.00</time>
   <time name="total">   16.33   16.43</time>
   <energy>
    <i name="e_fr_energy">   -481.04070328 </i>
    <i name="e_wo_entrp">   -481.05063787 </i>
    <i name="e_0_energy">   -481.04401481 </i>
   </energy>
  </scstep>
  <scstep>
   <time name="dav">   14.66   14.71</time>
   <time name="total">   15.04   15.09</time>
   <energy>
    <i name="e_fr_energy">   -481.04070362 </i>
    <i name="e_wo_entrp">   -481.05063814 </i>
    <i name="e_0_energy">   -481.04401513 </i>
   </energy>
  </scstep>
  <scstep>
   <time name="dav">   12.52   12.57</time>
   <time name="total">   12.90   12.96</time>
   <energy>
    <i name="e_fr_energy">   -481.04070366 </i>
    <i name="e_wo_entrp">   -481.05063817 </i>
    <i name="e_0_energy">   -481.04401517 </i>
   </energy>
  </scstep>
  <scstep>
   <time name="dav">    9.50    9.53</time>
   <time name="total">   10.12   10.18</time>
   <energy>
    <i name="e_fr_energy">   -481.04070364 </i>
    <i name="e_wo_entrp">   -481.05063814 </i>
    <i name="e_0_energy">   -481.04401514 </i>
   </energy>
  </scstep>
  <scstep>
   <time name="dav">    9.01    9.04</time>
   <time name="total">    9.07    9.10</time>
   <energy>
    <i name="alphaZ">    354.85177120 </i>
    <i name="ewald">  -9080.64640355 </i>
    <i name="hartreedc">  -1025.01282164 </i>
    <i name="XCdc">    179.30878110 </i>
    <i name="pawpsdc">  33068.08337290 </i>
    <i name="pawaedc"> -32529.02822289 </i>
    <i name="eentropy">      0.00993451 </i>
    <i name="bandstr">    545.21784153 </i>
    <i name="atom">   8006.17504320 </i>
    <i name="e_fr_energy">   -481.04070364 </i>
    <i name="e_wo_entrp">   -481.05063815 </i>
    <i name="e_0_energy">   -481.04401514 </i>
   </energy>
  </scstep>
  <structure>
   <crystal>
    <varray name="basis" >
     <v>       8.74331558       0.00000000       0.00000000 </v>
     <v>       0.00000000       8.74331558       0.00000000 </v>
     <v>       0.00000000       0.00000000       8.74331558 </v>
    </varray>
    <i name="volume">    668.38771987 </i>
    <varray name="rec_basis" >
     <v>       0.11437309       0.00000000       0.00000000 </v>
     <v>       0.00000000       0.11437309       0.00000000 </v>
     <v>       0.00000000       0.00000000       0.11437309 </v>
    </varray>
   </crystal>
   <varray name="positions" >
    <v>       0.12730239       0.12369075       0.12588633 </v>
    <v>       0.12566814       0.37454800       0.37484299 </v>
    <v>       0.37654498       0.12602440       0.37446328 </v>
    <v>       0.37626314       0.37067697       0.12757594 </v>
    <v>       0.12598153       0.12667527       0.62422628 </v>
    <v>       0.12288974       0.37641092       0.87104146 </v>
    <v>       0.37672165       0.12601965       0.87522317 </v>
    <v>       0.37564281       0.37491076       0.62496527 </v>
    <v>       0.12296120       0.62563287       0.12896984 </v>
    <v>       0.12395120       0.87536419       0.37591474 </v>
    <v>       0.37375844       0.62389404       0.37592123 </v>
    <v>       0.37808518       0.87539410       0.12594450 </v>
    <v>       0.12475199       0.62497896       0.61991655 </v>
    <v>       0.12615053       0.87467291       0.87213753 </v>
    <v>       0.37444246       0.62603166       0.88037792 </v>
    <v>       0.37524050       0.87292308       0.62334783 </v>
    <v>       0.62375166       0.12198099       0.12110556 </v>
    <v>       0.62944428       0.37044014       0.37248236 </v>
    <v>       0.87810760       0.12596045       0.37515626 </v>
    <v>       0.87280823       0.37487748       0.12433586 </v>
    <v>       0.63044144       0.12588975       0.62016421 </v>
    <v>       0.62733628       0.37653125       0.87754527 </v>
    <v>       0.87503047       0.12408615       0.87151493 </v>
    <v>       0.87359875       0.37393589       0.62489075 </v>
    <v>       0.62027752       0.62464341       0.12473388 </v>
    <v>       0.62631391       0.88053631       0.37372681 </v>
    <v>       0.87312806       0.62814387       0.37336012 </v>
    <v>       0.87199594       0.87332886       0.12387241 </v>
    <v>       0.62609765       0.62709416       0.62542312 </v>
    <v>       0.62568809       0.87082545       0.87965994 </v>
    <v>       0.87639226       0.62563271       0.87748393 </v>
    <v>       0.87533673       0.87419280       0.62763697 </v>
    <v>       0.99831280       0.00404621       0.00016833 </v>
    <v>       0.99858760       0.25802321       0.25164980 </v>
    <v>       0.25038684       0.00264561       0.25029830 </v>
    <v>       0.24696883       0.25086910       0.99992835 </v>
    <v>       0.99512015       0.00026775       0.49848875 </v>
    <v>       0.99947064       0.25165666       0.74768519 </v>
    <v>       0.25146770       0.00429557       0.75033919 </v>
    <v>       0.25276317       0.25427842       0.50223644 </v>
    <v>       0.99941812       0.49927713       0.00225644 </v>
    <v>       0.99678597       0.74638020       0.24891055 </v>
    <v>       0.25126217       0.49929025       0.24693440 </v>
    <v>       0.24794582       0.74853656       0.99626132 </v>
    <v>       0.99646459       0.50292057       0.49420825 </v>
    <v>       0.99882391       0.74898726       0.74978620 </v>
    <v>       0.25218680       0.50194122       0.75003976 </v>
    <v>       0.24591895       0.74842790       0.49762273 </v>
    <v>       0.50016849       0.00277383       0.99677187 </v>
    <v>       0.50250216       0.25106515       0.25226518 </v>
    <v>       0.74685330       0.99546770       0.24681626 </v>
    <v>       0.75477567       0.25299197       0.99564927 </v>
    <v>       0.50013709       0.99875481       0.49829006 </v>
    <v>       0.49891276       0.24963451       0.74472332 </v>
    <v>       0.75213561       0.99840976       0.74723863 </v>
    <v>       0.75358664       0.24979637       0.49901228 </v>
    <v>       0.50203894       0.49968045       0.00084277 </v>
    <v>       0.49843016       0.74943916       0.24832854 </v>
    <v>       0.74904239       0.50301591       0.24662550 </v>
    <v>       0.74984170       0.75329621       0.99992746 </v>
    <v>       0.49506648       0.50252907       0.49748926 </v>
    <v>       0.50083908       0.74749295       0.74967618 </v>
    <v>       0.75135909       0.49959198       0.74824455 </v>
    <v>       0.74916385       0.74824755       0.50498128 </v>
   </varray>
  </structure>
  <varray name="forces" >
   <v>      -0.91979442       0.82202727      -0.18830278 </v>
   <v>       0.04040738       0.76045932       0.02104343 </v>
   <v>      -0.21140966       0.23796045       0.45571465 </v>
   <v>      -0.18474737       0.78339000      -0.65679631 </v>
   <v>      -0.19760263       0.00750124      -0.06101386 </v>
   <v>       0.32370375       0.05481965       0.73561732 </v>
   <v>      -0.32459258       0.36468162      -0.46843668 </v>
   <v>       0.10043248       0.68503836       0.06990491 </v>
   <v>       0.36842796      -0.42150810      -0.91478706 </v>
   <v>      -0.33416100      -0.04270431      -0.52124474 </v>
   <v>      -0.15063088       0.34494375      -0.62325715 </v>
   <v>      -0.94701327       0.09990383      -0.53529766 </v>
   <v>      -0.33840603      -0.27206655       0.77428773 </v>
   <v>      -0.35621027       0.34260590       0.32672444 </v>
   <v>       0.27606363      -0.66434805      -1.12373174 </v>
   <v>      -0.01155691       0.18512323       0.23609148 </v>
   <v>       0.66204373       0.95688023       0.27692083 </v>
   <v>      -0.45987925       1.35322082       0.48630595 </v>
   <v>      -0.70116305      -0.05149317      -0.69829416 </v>
   <v>       0.46484733       0.45659140       0.03780648 </v>
   <v>      -0.92481275      -0.39130702       0.70640869 </v>
   <v>      -0.40773718      -0.06520453      -1.03524551 </v>
   <v>       0.22737091       0.44235743       0.18810633 </v>
   <v>       0.33352225       0.62329708      -0.43499927 </v>
   <v>       0.94567241       0.27820729       0.02297809 </v>
   <v>      -0.30559246      -1.74309049       0.45271012 </v>
   <v>      -0.46556542      -0.49277151       0.16144168 </v>
   <v>       0.72797387       0.26009016       0.11203650 </v>
   <v>      -0.49818616      -0.92575959      -0.08405194 </v>
   <v>      -0.32180527       0.99874874      -1.47980154 </v>
   <v>      -0.29089752      -0.14321020      -0.33845455 </v>
   <v>      -0.05153437      -0.17326720      -0.54864085 </v>
   <v>       0.42457543      -0.90636602      -0.05828007 </v>
   <v>       0.40820933      -1.70809206      -0.23057927 </v>
   <v>       0.17692076      -0.66686283       0.14598818 </v>
   <v>       0.55415880      -0.12690335      -0.09872503 </v>
   <v>       1.20740111      -0.03776455       0.28308133 </v>
   <v>       0.22589454      -0.36752844      -0.08783717 </v>
   <v>      -0.15155347      -0.81279710      -0.39823276 </v>
   <v>      -0.65053629      -1.02662739      -0.69730360 </v>
   <v>       0.16955976       0.27083348      -0.43598453 </v>
   <v>       0.48643244       1.38193981       0.19695248 </v>
   <v>      -0.11109634      -0.09709300       0.52564173 </v>
   <v>       0.09639136       0.86013209       1.20397490 </v>
   <v>       0.56492450      -0.63901731       0.82645573 </v>
   <v>       0.59662180       0.03858406       0.05972985 </v>
   <v>      -0.53402421       0.00807030      -0.07963217 </v>
   <v>       0.56299542       0.63053258       0.17457148 </v>
   <v>       0.04238808      -0.76770348       0.56091873 </v>
   <v>       0.03881990      -0.91972063      -0.67590155 </v>
   <v>       0.62934324       1.32974263       0.12061500 </v>
   <v>      -1.06847211      -1.05854681       0.57673622 </v>
   <v>       0.01165940       0.33402338       0.15167158 </v>
   <v>       1.01858879      -0.07695718       0.90167585 </v>
   <v>      -0.76162095       0.06554489       0.64711035 </v>
   <v>      -0.19811082      -0.08905376      -0.29592318 </v>
   <v>      -0.55954518      -0.41132069       0.11520558 </v>
   <v>       0.21032342       0.43833449       0.53120966 </v>
   <v>      -0.40021745      -0.42214834       0.41953628 </v>
   <v>      -0.10115895      -1.06037311       0.16642703 </v>
   <v>       1.45415505      -0.69826101       0.20474422 </v>
   <v>      -0.28283949       0.66296092       0.44414402 </v>
   <v>      -0.12386062       0.17161452       0.56487340 </v>
   <v>      -0.00349455       1.02970687      -1.11460712 </v>
  </varray>
  <varray name="stress" >
   <v>       4.36171964      -4.72018961       4.84214188 </v>
   <v>      -4.72018965       3.55137408      -3.50079481 </v>
   <v>       4.84214189      -3.50079480       4.00093135 </v>
  </varray>
  <energy>
   <i name="e_fr_energy">   -481.04070364 </i>
   <i name="e_wo_entrp">   -481.05063815 </i>
   <i name="e_0_energy">   -481.04401514 </i>
  </energy>
  <time name="totalsc">  333.09  334.46</time>
  <eigenvalues>
   <array>
    <dimension dim="1">band</dimension>
    <dimension dim="2">kpoint</dimension>
    <dimension dim="3">spin</dimension>
    <field>eigene</field>
    <field>occ</field>
    <set>
     <set comment="spin 1">
      <set comment="kpoint 1">
       <r>   -7.3471    1.0000 </r>
       <r>   -5.8394    1.0000 </r>
       <r>   -5.8101    1.0000 </r>
       <r>   -5.7891    1.0000 </r>
       <r>   -5.7623    1.0000 </r>
       <r>   -5.7003    1.0000 </r>
       <r>   -5.6729    1.0000 </r>
       <r>   -4.5125    1.0000 </r>
       <r>   -4.4740    1.0000 </r>
       <r>   -4.4193    1.0000 </r>
       <r>   -4.3901    1.0000 </r>
       <r>   -4.3732    1.0000 </r>
       <r>   -4.3531    1.0000 </r>
       <r>   -4.3329    1.0000 </r>
       <r>   -4.3122    1.0000 </r>
       <r>   -4.2853    1.0000 </r>
       <r>   -4.2564    1.0000 </r>
       <r>   -4.2292    1.0000 </r>
       <r>   -4.2183    1.0000 </r>
       <r>   -3.8531    1.0000 </r>
       <r>   -3.8087    1.0000 </r>
       <r>   -3.7516    1.0000 </r>
       <r>   -3.7251    1.0000 </r>
       <r>   -2.4327    1.0000 </r>
       <r>   -2.4122    1.0000 </r>
       <r>   -2.3243    1.0000 </r>
       <r>   -2.2251    1.0000 </r>
       <r>   -2.1703    1.0000 </r>
       <r>   -2.1391    1.0000 </r>
       <r>   -2.0955    1.0000 </r>
       <r>   -2.0593    1.0000 </r>
       <r>   -2.0198    1.0000 </r>
       <r>   -0.5693    1.0000 </r>
       <r>   -0.5128    1.0000 </r>
       <r>   -0.4475    1.0000 </r>
       <r>   -0.4326    1.0000 </r>
       <r>    0.2111    1.0000 </r>
       <r>    0.2314    1.0000 </r>
       <r>    0.2365    1.0000 </r>
       <r>    0.9577    1.0000 </r>
       <r>    0.9729    1.0000 </r>
       <r>    0.9797    1.0000 </r>
       <r>    0.9862    1.0000 </r>
       <r>    0.9934    1.0000 </r>
       <r>    1.0245    1.0000 </r>
       <r>    1.9556    1.0000 </r>
       <r>    1.9760    1.0000 </r>
       <r>    2.0028    1.0000 </r>
       <r>    2.0168    1.0000 </r>
       <r>    2.0455    1.0000 </r>
       <r>    2.0598    1.0000 </r>
       <r>    2.0884    1.0000 </r>
       <r>    2.1120    1.0000 </r>
       <r>    2.1217    1.0000 </r>
       <r>    2.1557    1.0000 </r>
       <r>    2.1596    1.0000 </r>
       <r>    2.1787    1.0000 </r>
       <r>    2.9737    1.0000 </r>
       <r>    3.0153    1.0000 </r>
       <r>    3.0264    1.0000 </r>
       <r>    3.0414    1.0000 </r>
       <r>    3.0633    1.0000 </r>
       <r>    3.0991    1.0000 </r>
       <r>    3.3010    1.0000 </r>
       <r>    3.3204    1.0000 </r>
       <r>    3.3351    1.0000 </r>
       <r>    3.3659    1.0000 </r>
       <r>    3.3768    1.0000 </r>
       <r>    3.3916    1.0000 </r>
       <r>    3.6039    1.0000 </r>
       <r>    3.6061    1.0000 </r>
       <r>    3.6401    1.0000 </r>
       <r>    3.6465    1.0000 </r>
       <r>    3.6648    1.0000 </r>
       <r>    3.6844    1.0000 </r>
       <r>    3.7159    1.0000 </r>
       <r>    3.7216    1.0000 </r>
       <r>    3.7410    1.0000 </r>
       <r>    3.7443    1.0000 </r>
       <r>    3.7749    1.0000 </r>
       <r>    3.7874    1.0000 </r>
       <r>    4.5572    1.0000 </r>
       <r>    4.6150    1.0000 </r>
       <r>    4.6476    1.0000 </r>
       <r>    4.6544    1.0000 </r>
       <r>    4.6853    1.0000 </r>
       <r>    4.7119    1.0000 </r>
       <r>    4.8118    1.0000 </r>
       <r>    4.8216    1.0000 </r>
       <r>    4.8316    1.0000 </r>
       <r>    4.8543    1.0000 </r>
       <r>    4.8620    1.0000 </r>
       <r>    4.8733    1.0000 </r>
       <r>    5.9470    1.0000 </r>
       <r>    5.9815    1.0000 </r>
       <r>    5.9973    1.0000 </r>
       <r>    6.0194    1.0000 </r>
       <r>    6.0643    1.0000 </r>
       <r>    6.0787    1.0000 </r>
       <r>    6.0828    1.0000 </r>
       <r>    6.0897    1.0000 </r>
       <r>    6.1160    1.0000 </r>
       <r>    6.1357    1.0000 </r>
       <r>    6.1817    1.0000 </r>
       <r>    6.2240    1.0000 </r>
       <r>    6.6835    1.0000 </r>
       <r>    6.6933    1.0000 </r>
       <r>    6.7195    1.0000 </r>
       <r>    6.7308    1.0000 </r>
       <r>    6.7440    1.0000 </r>
       <r>    6.7712    1.0000 </r>
       <r>    6.7797    1.0000 </r>
       <r>    6.8224    1.0000 </r>
       <r>    6.8534    1.0000 </r>
       <r>    6.8684    1.0000 </r>
       <r>    6.8948    1.0000 </r>
       <r>    6.9178    1.0000 </r>
       <r>    6.9487    1.0000 </r>
       <r>    6.9669    1.0000 </r>
       <r>    6.9900    1.0000 </r>
       <r>    7.0084    1.0000 </r>
       <r>    7.0279    1.0000 </r>
       <r>    7.0548    1.0000 </r>
       <r>    7.0788    1.0000 </r>
       <r>    7.1228    1.0000 </r>
       <r>    7.9535    1.0315 </r>
       <r>    8.0599    0.8945 </r>
       <r>    8.0688    0.8712 </r>
       <r>    9.2832   -0.0000 </r>
       <r>    9.3651   -0.0000 </r>
       <r>    9.4284   -0.0000 </r>
       <r>   11.9060   -0.0000 </r>
       <r>   11.9593   -0.0000 </r>
       <r>   11.9932   -0.0000 </r>
       <r>   12.0178   -0.0000 </r>
       <r>   12.0320   -0.0000 </r>
       <r>   12.1126   -0.0000 </r>
       <r>   12.2556   -0.0000 </r>
       <r>   12.2725   -0.0000 </r>
       <r>   12.3080   -0.0000 </r>
       <r>   13.0361   -0.0000 </r>
       <r>   13.0791   -0.0000 </r>
       <r>   13.1275   -0.0000 </r>
       <r>   13.1743   -0.0000 </r>
       <r>   13.2052   -0.0000 </r>
       <r>   13.2460   -0.0000 </r>
       <r>   13.2912   -0.0000 </r>
       <r>   13.3032   -0.0000 </r>
       <r>   13.3172   -0.0000 </r>
       <r>   13.3250   -0.0000 </r>
       <r>   13.4030   -0.0000 </r>
       <r>   13.4124   -0.0000 </r>
       <r>   13.4398   -0.0000 </r>
       <r>   13.4561   -0.0000 </r>
       <r>   13.4764   -0.0000 </r>
       <r>   13.4822   -0.0000 </r>
       <r>   13.5200   -0.0000 </r>
       <r>   13.5307   -0.0000 </r>
       <r>   13.5642   -0.0000 </r>
       <r>   13.5812   -0.0000 </r>
       <r>   13.6202   -0.0000 </r>
       <r>   13.6586    0.0000 </r>
       <r>   14.0952    0.0000 </r>
       <r>   14.2152    0.0000 </r>
       <r>   14.2413    0.0000 </r>
       <r>   14.3047    0.0000 </r>
       <r>   14.3177    0.0000 </r>
       <r>   14.3366    0.0000 </r>
      </set>
      <set comment="kpoint 2">
       <r>   -7.1691    1.0000 </r>
       <r>   -6.6332    1.0000 </r>
       <r>   -5.6507    1.0000 </r>
       <r>   -5.6187    1.0000 </r>
       <r>   -5.6001    1.0000 </r>
       <r>   -5.5359    1.0000 </r>
       <r>   -5.1584    1.0000 </r>
       <r>   -5.1251    1.0000 </r>
       <r>   -5.0981    1.0000 </r>
       <r>   -5.0487    1.0000 </r>
       <r>   -4.5984    1.0000 </r>
       <r>   -4.3036    1.0000 </r>
       <r>   -4.2775    1.0000 </r>
       <r>   -4.2048    1.0000 </r>
       <r>   -4.1696    1.0000 </r>
       <r>   -4.0201    1.0000 </r>
       <r>   -4.0016    1.0000 </r>
       <r>   -3.9369    1.0000 </r>
       <r>   -3.9002    1.0000 </r>
       <r>   -3.4401    1.0000 </r>
       <r>   -3.3960    1.0000 </r>
       <r>   -3.3878    1.0000 </r>
       <r>   -3.3369    1.0000 </r>
       <r>   -3.2303    1.0000 </r>
       <r>   -2.5835    1.0000 </r>
       <r>   -2.5345    1.0000 </r>
       <r>   -2.5088    1.0000 </r>
       <r>   -2.4602    1.0000 </r>
       <r>   -2.3627    1.0000 </r>
       <r>   -2.2398    1.0000 </r>
       <r>   -2.1931    1.0000 </r>
       <r>   -2.1301    1.0000 </r>
       <r>   -0.1035    1.0000 </r>
       <r>   -0.0492    1.0000 </r>
       <r>    0.0104    1.0000 </r>
       <r>    0.0245    1.0000 </r>
       <r>    0.3626    1.0000 </r>
       <r>    0.3708    1.0000 </r>
       <r>    0.7122    1.0000 </r>
       <r>    0.7297    1.0000 </r>
       <r>    0.9678    1.0000 </r>
       <r>    1.0007    1.0000 </r>
       <r>    1.0309    1.0000 </r>
       <r>    1.0602    1.0000 </r>
       <r>    1.0779    1.0000 </r>
       <r>    1.1149    1.0000 </r>
       <r>    1.1397    1.0000 </r>
       <r>    1.1755    1.0000 </r>
       <r>    1.2658    1.0000 </r>
       <r>    1.3449    1.0000 </r>
       <r>    1.3985    1.0000 </r>
       <r>    1.4458    1.0000 </r>
       <r>    1.4681    1.0000 </r>
       <r>    2.6737    1.0000 </r>
       <r>    2.6901    1.0000 </r>
       <r>    2.7053    1.0000 </r>
       <r>    2.7426    1.0000 </r>
       <r>    2.8837    1.0000 </r>
       <r>    2.9219    1.0000 </r>
       <r>    2.9496    1.0000 </r>
       <r>    2.9702    1.0000 </r>
       <r>    2.9800    1.0000 </r>
       <r>    3.0055    1.0000 </r>
       <r>    3.0300    1.0000 </r>
       <r>    3.0625    1.0000 </r>
       <r>    3.0897    1.0000 </r>
       <r>    3.5092    1.0000 </r>
       <r>    3.5297    1.0000 </r>
       <r>    3.6489    1.0000 </r>
       <r>    3.6544    1.0000 </r>
       <r>    3.9672    1.0000 </r>
       <r>    4.0017    1.0000 </r>
       <r>    4.0450    1.0000 </r>
       <r>    4.0827    1.0000 </r>
       <r>    4.3119    1.0000 </r>
       <r>    4.3440    1.0000 </r>
       <r>    4.3785    1.0000 </r>
       <r>    4.3892    1.0000 </r>
       <r>    4.4085    1.0000 </r>
       <r>    4.4488    1.0000 </r>
       <r>    4.4593    1.0000 </r>
       <r>    4.4867    1.0000 </r>
       <r>    4.6273    1.0000 </r>
       <r>    4.6448    1.0000 </r>
       <r>    4.6601    1.0000 </r>
       <r>    4.6771    1.0000 </r>
       <r>    4.7736    1.0000 </r>
       <r>    4.8215    1.0000 </r>
       <r>    4.8481    1.0000 </r>
       <r>    4.8702    1.0000 </r>
       <r>    4.9712    1.0000 </r>
       <r>    5.0102    1.0000 </r>
       <r>    5.3808    1.0000 </r>
       <r>    5.4175    1.0000 </r>
       <r>    5.5878    1.0000 </r>
       <r>    5.6133    1.0000 </r>
       <r>    5.6251    1.0000 </r>
       <r>    5.6433    1.0000 </r>
       <r>    5.8299    1.0000 </r>
       <r>    5.8693    1.0000 </r>
       <r>    5.9101    1.0000 </r>
       <r>    5.9395    1.0000 </r>
       <r>    6.1630    1.0000 </r>
       <r>    6.2234    1.0000 </r>
       <r>    6.2671    1.0000 </r>
       <r>    6.2902    1.0000 </r>
       <r>    6.3327    1.0000 </r>
       <r>    6.4376    1.0000 </r>
       <r>    6.4596    1.0000 </r>
       <r>    6.5260    1.0000 </r>
       <r>    6.5351    1.0000 </r>
       <r>    6.7387    1.0000 </r>
       <r>    6.7479    1.0000 </r>
       <r>    6.8009    1.0000 </r>
       <r>    6.8418    1.0000 </r>
       <r>    6.8615    1.0000 </r>
       <r>    6.8877    1.0000 </r>
       <r>    6.8962    1.0000 </r>
       <r>    6.9308    1.0000 </r>
       <r>    6.9566    1.0000 </r>
       <r>    6.9620    1.0000 </r>
       <r>    6.9953    1.0000 </r>
       <r>    7.0120    1.0000 </r>
       <r>    7.0466    1.0000 </r>
       <r>    7.0811    1.0000 </r>
       <r>    7.4752    1.0000 </r>
       <r>    7.6708    1.0012 </r>
       <r>    7.7183    1.0032 </r>
       <r>    9.6763   -0.0000 </r>
       <r>   10.1429   -0.0000 </r>
       <r>   10.2578   -0.0000 </r>
       <r>   10.6183   -0.0000 </r>
       <r>   11.9055   -0.0000 </r>
       <r>   12.0072   -0.0000 </r>
       <r>   12.4632   -0.0000 </r>
       <r>   12.5783   -0.0000 </r>
       <r>   12.6209   -0.0000 </r>
       <r>   12.6634   -0.0000 </r>
       <r>   12.6985   -0.0000 </r>
       <r>   12.9109   -0.0000 </r>
       <r>   12.9382   -0.0000 </r>
       <r>   12.9555   -0.0000 </r>
       <r>   12.9995   -0.0000 </r>
       <r>   13.0271   -0.0000 </r>
       <r>   13.0483   -0.0000 </r>
       <r>   13.0731   -0.0000 </r>
       <r>   13.0851   -0.0000 </r>
       <r>   13.1432   -0.0000 </r>
       <r>   13.1821   -0.0000 </r>
       <r>   13.2076   -0.0000 </r>
       <r>   13.4829   -0.0000 </r>
       <r>   13.5956   -0.0000 </r>
       <r>   13.6091   -0.0000 </r>
       <r>   13.6313    0.0000 </r>
       <r>   13.6603    0.0000 </r>
       <r>   13.6766    0.0000 </r>
       <r>   13.6912    0.0000 </r>
       <r>   13.7156    0.0000 </r>
       <r>   13.7242    0.0000 </r>
       <r>   13.9057    0.0000 </r>
       <r>   13.9640    0.0000 </r>
       <r>   14.0038    0.0000 </r>
       <r>   14.0417    0.0000 </r>
       <r>   14.4703    0.0000 </r>
       <r>   14.7589    0.0000 </r>
       <r>   14.8367    0.0000 </r>
       <r>   14.8595    0.0000 </r>
       <r>   14.8947    0.0000 </r>
      </set>
      <set comment="kpoint 3">
       <r>   -7.1722    1.0000 </r>
       <r>   -6.6240    1.0000 </r>
       <r>   -5.6766    1.0000 </r>
       <r>   -5.6131    1.0000 </r>
       <r>   -5.5925    1.0000 </r>
       <r>   -5.5428    1.0000 </r>
       <r>   -5.1529    1.0000 </r>
       <r>   -5.1192    1.0000 </r>
       <r>   -5.0879    1.0000 </r>
       <r>   -5.0428    1.0000 </r>
       <r>   -4.6027    1.0000 </r>
       <r>   -4.3224    1.0000 </r>
       <r>   -4.2928    1.0000 </r>
       <r>   -4.2409    1.0000 </r>
       <r>   -4.1692    1.0000 </r>
       <r>   -4.0063    1.0000 </r>
       <r>   -3.9891    1.0000 </r>
       <r>   -3.8973    1.0000 </r>
       <r>   -3.8822    1.0000 </r>
       <r>   -3.4585    1.0000 </r>
       <r>   -3.4170    1.0000 </r>
       <r>   -3.3904    1.0000 </r>
       <r>   -3.3383    1.0000 </r>
       <r>   -3.1996    1.0000 </r>
       <r>   -2.5796    1.0000 </r>
       <r>   -2.5253    1.0000 </r>
       <r>   -2.5078    1.0000 </r>
       <r>   -2.4420    1.0000 </r>
       <r>   -2.3740    1.0000 </r>
       <r>   -2.3367    1.0000 </r>
       <r>   -2.1417    1.0000 </r>
       <r>   -2.1176    1.0000 </r>
       <r>   -0.1051    1.0000 </r>
       <r>   -0.0562    1.0000 </r>
       <r>    0.0100    1.0000 </r>
       <r>    0.0284    1.0000 </r>
       <r>    0.3478    1.0000 </r>
       <r>    0.3696    1.0000 </r>
       <r>    0.7131    1.0000 </r>
       <r>    0.7512    1.0000 </r>
       <r>    1.0019    1.0000 </r>
       <r>    1.0093    1.0000 </r>
       <r>    1.0336    1.0000 </r>
       <r>    1.0590    1.0000 </r>
       <r>    1.0710    1.0000 </r>
       <r>    1.0977    1.0000 </r>
       <r>    1.1651    1.0000 </r>
       <r>    1.1738    1.0000 </r>
       <r>    1.2394    1.0000 </r>
       <r>    1.3588    1.0000 </r>
       <r>    1.3892    1.0000 </r>
       <r>    1.4393    1.0000 </r>
       <r>    1.4624    1.0000 </r>
       <r>    2.6472    1.0000 </r>
       <r>    2.6850    1.0000 </r>
       <r>    2.7027    1.0000 </r>
       <r>    2.7252    1.0000 </r>
       <r>    2.9055    1.0000 </r>
       <r>    2.9295    1.0000 </r>
       <r>    2.9404    1.0000 </r>
       <r>    2.9608    1.0000 </r>
       <r>    2.9817    1.0000 </r>
       <r>    3.0111    1.0000 </r>
       <r>    3.0405    1.0000 </r>
       <r>    3.0641    1.0000 </r>
       <r>    3.0896    1.0000 </r>
       <r>    3.5120    1.0000 </r>
       <r>    3.5244    1.0000 </r>
       <r>    3.6423    1.0000 </r>
       <r>    3.6517    1.0000 </r>
       <r>    3.9539    1.0000 </r>
       <r>    4.0113    1.0000 </r>
       <r>    4.0549    1.0000 </r>
       <r>    4.0896    1.0000 </r>
       <r>    4.3402    1.0000 </r>
       <r>    4.3548    1.0000 </r>
       <r>    4.3818    1.0000 </r>
       <r>    4.3948    1.0000 </r>
       <r>    4.4238    1.0000 </r>
       <r>    4.4405    1.0000 </r>
       <r>    4.4506    1.0000 </r>
       <r>    4.4760    1.0000 </r>
       <r>    4.6012    1.0000 </r>
       <r>    4.6405    1.0000 </r>
       <r>    4.6701    1.0000 </r>
       <r>    4.6985    1.0000 </r>
       <r>    4.7639    1.0000 </r>
       <r>    4.7943    1.0000 </r>
       <r>    4.8608    1.0000 </r>
       <r>    4.8794    1.0000 </r>
       <r>    4.9619    1.0000 </r>
       <r>    4.9916    1.0000 </r>
       <r>    5.3883    1.0000 </r>
       <r>    5.4294    1.0000 </r>
       <r>    5.5591    1.0000 </r>
       <r>    5.6134    1.0000 </r>
       <r>    5.6294    1.0000 </r>
       <r>    5.6744    1.0000 </r>
       <r>    5.8529    1.0000 </r>
       <r>    5.8638    1.0000 </r>
       <r>    5.9128    1.0000 </r>
       <r>    5.9318    1.0000 </r>
       <r>    6.1679    1.0000 </r>
       <r>    6.2113    1.0000 </r>
       <r>    6.2566    1.0000 </r>
       <r>    6.3257    1.0000 </r>
       <r>    6.3539    1.0000 </r>
       <r>    6.4228    1.0000 </r>
       <r>    6.4684    1.0000 </r>
       <r>    6.5061    1.0000 </r>
       <r>    6.5688    1.0000 </r>
       <r>    6.6997    1.0000 </r>
       <r>    6.7056    1.0000 </r>
       <r>    6.7717    1.0000 </r>
       <r>    6.8297    1.0000 </r>
       <r>    6.8662    1.0000 </r>
       <r>    6.8874    1.0000 </r>
       <r>    6.8957    1.0000 </r>
       <r>    6.9372    1.0000 </r>
       <r>    6.9388    1.0000 </r>
       <r>    6.9645    1.0000 </r>
       <r>    7.0005    1.0000 </r>
       <r>    7.0295    1.0000 </r>
       <r>    7.0631    1.0000 </r>
       <r>    7.0961    1.0000 </r>
       <r>    7.4634    1.0000 </r>
       <r>    7.6735    1.0013 </r>
       <r>    7.7294    1.0040 </r>
       <r>    9.6686   -0.0000 </r>
       <r>   10.1888   -0.0000 </r>
       <r>   10.2160   -0.0000 </r>
       <r>   10.6241   -0.0000 </r>
       <r>   11.9521   -0.0000 </r>
       <r>   11.9804   -0.0000 </r>
       <r>   12.4675   -0.0000 </r>
       <r>   12.5817   -0.0000 </r>
       <r>   12.6259   -0.0000 </r>
       <r>   12.6449   -0.0000 </r>
       <r>   12.6929   -0.0000 </r>
       <r>   12.8798   -0.0000 </r>
       <r>   12.9190   -0.0000 </r>
       <r>   12.9606   -0.0000 </r>
       <r>   12.9986   -0.0000 </r>
       <r>   13.0201   -0.0000 </r>
       <r>   13.0475   -0.0000 </r>
       <r>   13.0807   -0.0000 </r>
       <r>   13.1047   -0.0000 </r>
       <r>   13.1463   -0.0000 </r>
       <r>   13.1837   -0.0000 </r>
       <r>   13.2236   -0.0000 </r>
       <r>   13.4904   -0.0000 </r>
       <r>   13.5635   -0.0000 </r>
       <r>   13.5843   -0.0000 </r>
       <r>   13.6141   -0.0000 </r>
       <r>   13.6530    0.0000 </r>
       <r>   13.6772    0.0000 </r>
       <r>   13.6952    0.0000 </r>
       <r>   13.7365    0.0000 </r>
       <r>   13.7637    0.0000 </r>
       <r>   13.9116    0.0000 </r>
       <r>   13.9677    0.0000 </r>
       <r>   14.0060    0.0000 </r>
       <r>   14.0423    0.0000 </r>
       <r>   14.4788    0.0000 </r>
       <r>   14.8028    0.0000 </r>
       <r>   14.8192    0.0000 </r>
       <r>   14.8489    0.0000 </r>
       <r>   14.8840    0.0000 </r>
      </set>
      <set comment="kpoint 4">
       <r>   -7.1680    1.0000 </r>
       <r>   -6.6352    1.0000 </r>
       <r>   -5.6739    1.0000 </r>
       <r>   -5.6192    1.0000 </r>
       <r>   -5.5911    1.0000 </r>
       <r>   -5.5108    1.0000 </r>
       <r>   -5.1795    1.0000 </r>
       <r>   -5.1319    1.0000 </r>
       <r>   -5.0969    1.0000 </r>
       <r>   -5.0285    1.0000 </r>
       <r>   -4.6076    1.0000 </r>
       <r>   -4.3040    1.0000 </r>
       <r>   -4.2616    1.0000 </r>
       <r>   -4.2040    1.0000 </r>
       <r>   -4.1563    1.0000 </r>
       <r>   -4.0398    1.0000 </r>
       <r>   -4.0029    1.0000 </r>
       <r>   -3.9425    1.0000 </r>
       <r>   -3.8893    1.0000 </r>
       <r>   -3.4625    1.0000 </r>
       <r>   -3.4208    1.0000 </r>
       <r>   -3.3711    1.0000 </r>
       <r>   -3.3204    1.0000 </r>
       <r>   -3.2241    1.0000 </r>
       <r>   -2.5912    1.0000 </r>
       <r>   -2.5752    1.0000 </r>
       <r>   -2.4871    1.0000 </r>
       <r>   -2.4485    1.0000 </r>
       <r>   -2.2980    1.0000 </r>
       <r>   -2.2757    1.0000 </r>
       <r>   -2.1744    1.0000 </r>
       <r>   -2.1639    1.0000 </r>
       <r>   -0.1070    1.0000 </r>
       <r>   -0.0528    1.0000 </r>
       <r>    0.0149    1.0000 </r>
       <r>    0.0302    1.0000 </r>
       <r>    0.3600    1.0000 </r>
       <r>    0.3751    1.0000 </r>
       <r>    0.7164    1.0000 </r>
       <r>    0.7248    1.0000 </r>
       <r>    0.9765    1.0000 </r>
       <r>    0.9968    1.0000 </r>
       <r>    1.0195    1.0000 </r>
       <r>    1.0541    1.0000 </r>
       <r>    1.0755    1.0000 </r>
       <r>    1.1047    1.0000 </r>
       <r>    1.1520    1.0000 </r>
       <r>    1.1835    1.0000 </r>
       <r>    1.2545    1.0000 </r>
       <r>    1.3821    1.0000 </r>
       <r>    1.3934    1.0000 </r>
       <r>    1.4224    1.0000 </r>
       <r>    1.4729    1.0000 </r>
       <r>    2.6637    1.0000 </r>
       <r>    2.6978    1.0000 </r>
       <r>    2.7165    1.0000 </r>
       <r>    2.7395    1.0000 </r>
       <r>    2.8940    1.0000 </r>
       <r>    2.9347    1.0000 </r>
       <r>    2.9521    1.0000 </r>
       <r>    2.9555    1.0000 </r>
       <r>    2.9927    1.0000 </r>
       <r>    3.0109    1.0000 </r>
       <r>    3.0260    1.0000 </r>
       <r>    3.0450    1.0000 </r>
       <r>    3.0766    1.0000 </r>
       <r>    3.5132    1.0000 </r>
       <r>    3.5234    1.0000 </r>
       <r>    3.6507    1.0000 </r>
       <r>    3.6591    1.0000 </r>
       <r>    3.9774    1.0000 </r>
       <r>    4.0164    1.0000 </r>
       <r>    4.0476    1.0000 </r>
       <r>    4.0641    1.0000 </r>
       <r>    4.3348    1.0000 </r>
       <r>    4.3503    1.0000 </r>
       <r>    4.3663    1.0000 </r>
       <r>    4.3910    1.0000 </r>
       <r>    4.4037    1.0000 </r>
       <r>    4.4238    1.0000 </r>
       <r>    4.4436    1.0000 </r>
       <r>    4.4884    1.0000 </r>
       <r>    4.6075    1.0000 </r>
       <r>    4.6329    1.0000 </r>
       <r>    4.6632    1.0000 </r>
       <r>    4.7046    1.0000 </r>
       <r>    4.7509    1.0000 </r>
       <r>    4.8135    1.0000 </r>
       <r>    4.8595    1.0000 </r>
       <r>    4.8918    1.0000 </r>
       <r>    4.9893    1.0000 </r>
       <r>    5.0087    1.0000 </r>
       <r>    5.3781    1.0000 </r>
       <r>    5.4206    1.0000 </r>
       <r>    5.5596    1.0000 </r>
       <r>    5.6046    1.0000 </r>
       <r>    5.6258    1.0000 </r>
       <r>    5.6692    1.0000 </r>
       <r>    5.8336    1.0000 </r>
       <r>    5.8676    1.0000 </r>
       <r>    5.8906    1.0000 </r>
       <r>    5.9320    1.0000 </r>
       <r>    6.1656    1.0000 </r>
       <r>    6.2028    1.0000 </r>
       <r>    6.2613    1.0000 </r>
       <r>    6.2979    1.0000 </r>
       <r>    6.3567    1.0000 </r>
       <r>    6.4379    1.0000 </r>
       <r>    6.4778    1.0000 </r>
       <r>    6.5131    1.0000 </r>
       <r>    6.5394    1.0000 </r>
       <r>    6.7720    1.0000 </r>
       <r>    6.7912    1.0000 </r>
       <r>    6.8107    1.0000 </r>
       <r>    6.8472    1.0000 </r>
       <r>    6.8680    1.0000 </r>
       <r>    6.8833    1.0000 </r>
       <r>    6.9037    1.0000 </r>
       <r>    6.9183    1.0000 </r>
       <r>    6.9375    1.0000 </r>
       <r>    6.9639    1.0000 </r>
       <r>    6.9767    1.0000 </r>
       <r>    7.0038    1.0000 </r>
       <r>    7.0318    1.0000 </r>
       <r>    7.0653    1.0000 </r>
       <r>    7.4733    1.0000 </r>
       <r>    7.6632    1.0010 </r>
       <r>    7.7238    1.0036 </r>
       <r>    9.6712   -0.0000 </r>
       <r>   10.1862   -0.0000 </r>
       <r>   10.2160   -0.0000 </r>
       <r>   10.6225   -0.0000 </r>
       <r>   11.9421   -0.0000 </r>
       <r>   11.9745   -0.0000 </r>
       <r>   12.4771   -0.0000 </r>
       <r>   12.5560   -0.0000 </r>
       <r>   12.6211   -0.0000 </r>
       <r>   12.6513   -0.0000 </r>
       <r>   12.7145   -0.0000 </r>
       <r>   12.9043   -0.0000 </r>
       <r>   12.9385   -0.0000 </r>
       <r>   12.9763   -0.0000 </r>
       <r>   13.0017   -0.0000 </r>
       <r>   13.0242   -0.0000 </r>
       <r>   13.0548   -0.0000 </r>
       <r>   13.0850   -0.0000 </r>
       <r>   13.0927   -0.0000 </r>
       <r>   13.1225   -0.0000 </r>
       <r>   13.1591   -0.0000 </r>
       <r>   13.2133   -0.0000 </r>
       <r>   13.4751   -0.0000 </r>
       <r>   13.5700   -0.0000 </r>
       <r>   13.6227   -0.0000 </r>
       <r>   13.6519    0.0000 </r>
       <r>   13.6646    0.0000 </r>
       <r>   13.6855    0.0000 </r>
       <r>   13.6889    0.0000 </r>
       <r>   13.7133    0.0000 </r>
       <r>   13.7232    0.0000 </r>
       <r>   13.9150    0.0000 </r>
       <r>   13.9550    0.0000 </r>
       <r>   13.9840    0.0000 </r>
       <r>   14.0681    0.0000 </r>
       <r>   14.4692    0.0000 </r>
       <r>   14.7553    0.0000 </r>
       <r>   14.8216    0.0000 </r>
       <r>   14.8641    0.0000 </r>
       <r>   14.9005    0.0000 </r>
      </set>
      <set comment="kpoint 5">
       <r>   -6.9959    1.0000 </r>
       <r>   -6.4850    1.0000 </r>
       <r>   -6.4280    1.0000 </r>
       <r>   -5.9350    1.0000 </r>
       <r>   -5.4627    1.0000 </r>
       <r>   -5.4268    1.0000 </r>
       <r>   -5.0389    1.0000 </r>
       <r>   -4.9835    1.0000 </r>
       <r>   -4.9262    1.0000 </r>
       <r>   -4.9181    1.0000 </r>
       <r>   -4.5703    1.0000 </r>
       <r>   -4.5392    1.0000 </r>
       <r>   -4.4614    1.0000 </r>
       <r>   -4.3970    1.0000 </r>
       <r>   -4.0234    1.0000 </r>
       <r>   -4.0037    1.0000 </r>
       <r>   -3.5770    1.0000 </r>
       <r>   -3.5119    1.0000 </r>
       <r>   -3.4515    1.0000 </r>
       <r>   -3.4243    1.0000 </r>
       <r>   -3.3367    1.0000 </r>
       <r>   -3.3093    1.0000 </r>
       <r>   -3.1522    1.0000 </r>
       <r>   -3.0966    1.0000 </r>
       <r>   -2.8777    1.0000 </r>
       <r>   -2.8239    1.0000 </r>
       <r>   -2.7555    1.0000 </r>
       <r>   -2.7061    1.0000 </r>
       <r>   -2.6777    1.0000 </r>
       <r>   -2.3707    1.0000 </r>
       <r>   -2.3122    1.0000 </r>
       <r>   -2.2022    1.0000 </r>
       <r>   -0.2234    1.0000 </r>
       <r>   -0.1628    1.0000 </r>
       <r>    0.4531    1.0000 </r>
       <r>    0.4992    1.0000 </r>
       <r>    0.5400    1.0000 </r>
       <r>    0.5865    1.0000 </r>
       <r>    0.5957    1.0000 </r>
       <r>    0.6300    1.0000 </r>
       <r>    0.6781    1.0000 </r>
       <r>    0.7679    1.0000 </r>
       <r>    0.7872    1.0000 </r>
       <r>    0.8554    1.0000 </r>
       <r>    0.8907    1.0000 </r>
       <r>    1.0104    1.0000 </r>
       <r>    1.1803    1.0000 </r>
       <r>    1.2294    1.0000 </r>
       <r>    1.2648    1.0000 </r>
       <r>    1.3020    1.0000 </r>
       <r>    1.9696    1.0000 </r>
       <r>    2.0027    1.0000 </r>
       <r>    2.0158    1.0000 </r>
       <r>    2.0610    1.0000 </r>
       <r>    2.0800    1.0000 </r>
       <r>    2.1352    1.0000 </r>
       <r>    2.4136    1.0000 </r>
       <r>    2.5429    1.0000 </r>
       <r>    2.5849    1.0000 </r>
       <r>    2.6807    1.0000 </r>
       <r>    2.7503    1.0000 </r>
       <r>    3.2262    1.0000 </r>
       <r>    3.2445    1.0000 </r>
       <r>    3.3041    1.0000 </r>
       <r>    3.3330    1.0000 </r>
       <r>    3.3604    1.0000 </r>
       <r>    3.4861    1.0000 </r>
       <r>    3.5449    1.0000 </r>
       <r>    3.9026    1.0000 </r>
       <r>    3.9225    1.0000 </r>
       <r>    3.9900    1.0000 </r>
       <r>    4.0202    1.0000 </r>
       <r>    4.0447    1.0000 </r>
       <r>    4.0775    1.0000 </r>
       <r>    4.1275    1.0000 </r>
       <r>    4.2642    1.0000 </r>
       <r>    4.3071    1.0000 </r>
       <r>    4.4698    1.0000 </r>
       <r>    4.4882    1.0000 </r>
       <r>    4.6480    1.0000 </r>
       <r>    4.6828    1.0000 </r>
       <r>    4.8440    1.0000 </r>
       <r>    4.8734    1.0000 </r>
       <r>    4.9160    1.0000 </r>
       <r>    4.9233    1.0000 </r>
       <r>    4.9648    1.0000 </r>
       <r>    4.9903    1.0000 </r>
       <r>    5.0799    1.0000 </r>
       <r>    5.2364    1.0000 </r>
       <r>    5.2883    1.0000 </r>
       <r>    5.3762    1.0000 </r>
       <r>    5.3924    1.0000 </r>
       <r>    5.4545    1.0000 </r>
       <r>    5.5033    1.0000 </r>
       <r>    5.5529    1.0000 </r>
       <r>    5.5585    1.0000 </r>
       <r>    5.5926    1.0000 </r>
       <r>    5.6121    1.0000 </r>
       <r>    5.6461    1.0000 </r>
       <r>    5.6755    1.0000 </r>
       <r>    5.6936    1.0000 </r>
       <r>    5.8235    1.0000 </r>
       <r>    5.9820    1.0000 </r>
       <r>    6.0038    1.0000 </r>
       <r>    6.0337    1.0000 </r>
       <r>    6.0453    1.0000 </r>
       <r>    6.1945    1.0000 </r>
       <r>    6.2234    1.0000 </r>
       <r>    6.2596    1.0000 </r>
       <r>    6.2893    1.0000 </r>
       <r>    6.3742    1.0000 </r>
       <r>    6.4381    1.0000 </r>
       <r>    6.4687    1.0000 </r>
       <r>    6.5150    1.0000 </r>
       <r>    6.5823    1.0000 </r>
       <r>    6.6389    1.0000 </r>
       <r>    6.6683    1.0000 </r>
       <r>    6.7067    1.0000 </r>
       <r>    6.7476    1.0000 </r>
       <r>    6.8543    1.0000 </r>
       <r>    6.8886    1.0000 </r>
       <r>    6.9269    1.0000 </r>
       <r>    6.9515    1.0000 </r>
       <r>    7.3145    1.0000 </r>
       <r>    7.4989    1.0000 </r>
       <r>    7.5699    1.0001 </r>
       <r>    7.6095    1.0003 </r>
       <r>    7.9369    1.0348 </r>
       <r>   10.3747   -0.0000 </r>
       <r>   10.4787   -0.0000 </r>
       <r>   10.5158   -0.0000 </r>
       <r>   11.3012   -0.0000 </r>
       <r>   11.3633   -0.0000 </r>
       <r>   11.6256   -0.0000 </r>
       <r>   11.6947   -0.0000 </r>
       <r>   11.8107   -0.0000 </r>
       <r>   12.1781   -0.0000 </r>
       <r>   12.2032   -0.0000 </r>
       <r>   12.8147   -0.0000 </r>
       <r>   12.8306   -0.0000 </r>
       <r>   12.8539   -0.0000 </r>
       <r>   12.8687   -0.0000 </r>
       <r>   13.0273   -0.0000 </r>
       <r>   13.0537   -0.0000 </r>
       <r>   13.0970   -0.0000 </r>
       <r>   13.1549   -0.0000 </r>
       <r>   13.2113   -0.0000 </r>
       <r>   13.2359   -0.0000 </r>
       <r>   13.2713   -0.0000 </r>
       <r>   13.3002   -0.0000 </r>
       <r>   13.5220   -0.0000 </r>
       <r>   13.5431   -0.0000 </r>
       <r>   13.5960   -0.0000 </r>
       <r>   13.6105   -0.0000 </r>
       <r>   13.7095    0.0000 </r>
       <r>   13.7746    0.0000 </r>
       <r>   13.7942    0.0000 </r>
       <r>   13.8038    0.0000 </r>
       <r>   13.8571    0.0000 </r>
       <r>   13.9263    0.0000 </r>
       <r>   14.0151    0.0000 </r>
       <r>   14.0468    0.0000 </r>
       <r>   14.1343    0.0000 </r>
       <r>   14.6560    0.0000 </r>
       <r>   14.7096    0.0000 </r>
       <r>   14.7431    0.0000 </r>
       <r>   14.9187    0.0000 </r>
       <r>   14.9589    0.0000 </r>
      </set>
      <set comment="kpoint 6">
       <r>   -6.9947    1.0000 </r>
       <r>   -6.4836    1.0000 </r>
       <r>   -6.4314    1.0000 </r>
       <r>   -5.9353    1.0000 </r>
       <r>   -5.5007    1.0000 </r>
       <r>   -5.3884    1.0000 </r>
       <r>   -5.0515    1.0000 </r>
       <r>   -4.9808    1.0000 </r>
       <r>   -4.9209    1.0000 </r>
       <r>   -4.8954    1.0000 </r>
       <r>   -4.6073    1.0000 </r>
       <r>   -4.5065    1.0000 </r>
       <r>   -4.4638    1.0000 </r>
       <r>   -4.4033    1.0000 </r>
       <r>   -4.0533    1.0000 </r>
       <r>   -3.9740    1.0000 </r>
       <r>   -3.5950    1.0000 </r>
       <r>   -3.4937    1.0000 </r>
       <r>   -3.4777    1.0000 </r>
       <r>   -3.3779    1.0000 </r>
       <r>   -3.3451    1.0000 </r>
       <r>   -3.3147    1.0000 </r>
       <r>   -3.1718    1.0000 </r>
       <r>   -3.0839    1.0000 </r>
       <r>   -2.8606    1.0000 </r>
       <r>   -2.8546    1.0000 </r>
       <r>   -2.7684    1.0000 </r>
       <r>   -2.7233    1.0000 </r>
       <r>   -2.6450    1.0000 </r>
       <r>   -2.3615    1.0000 </r>
       <r>   -2.3056    1.0000 </r>
       <r>   -2.2128    1.0000 </r>
       <r>   -0.2418    1.0000 </r>
       <r>   -0.1306    1.0000 </r>
       <r>    0.4535    1.0000 </r>
       <r>    0.4923    1.0000 </r>
       <r>    0.5136    1.0000 </r>
       <r>    0.5781    1.0000 </r>
       <r>    0.6085    1.0000 </r>
       <r>    0.6352    1.0000 </r>
       <r>    0.6890    1.0000 </r>
       <r>    0.7763    1.0000 </r>
       <r>    0.7971    1.0000 </r>
       <r>    0.8256    1.0000 </r>
       <r>    0.9156    1.0000 </r>
       <r>    0.9999    1.0000 </r>
       <r>    1.1754    1.0000 </r>
       <r>    1.2256    1.0000 </r>
       <r>    1.2598    1.0000 </r>
       <r>    1.3082    1.0000 </r>
       <r>    1.9668    1.0000 </r>
       <r>    1.9833    1.0000 </r>
       <r>    2.0220    1.0000 </r>
       <r>    2.0647    1.0000 </r>
       <r>    2.1183    1.0000 </r>
       <r>    2.1292    1.0000 </r>
       <r>    2.4095    1.0000 </r>
       <r>    2.5633    1.0000 </r>
       <r>    2.5749    1.0000 </r>
       <r>    2.6885    1.0000 </r>
       <r>    2.7270    1.0000 </r>
       <r>    3.1902    1.0000 </r>
[...]
      </set>
     </set>
    </set>
   </array>
  </eigenvalues>
  <separator name="orbital magnetization" >
   <v name="MAGDIPOLOUT">      0.00000000      0.00000000      0.00000000</v>
  </separator>
  <dos>
   <i name="efermi">      8.16919204 </i>
   <total>
    <array>
     <dimension dim="1">gridpoints</dimension>
     <dimension dim="2">spin</dimension>
     <field>energy</field>
     <field>total</field>
     <field>integrated</field>
     <set>
      <set comment="spin 1">
       <r>    -9.3471     0.0000     0.0000 </r>
       <r>    -9.2576     0.0000     0.0000 </r>
       <r>    -9.1681     0.0000     0.0000 </r>
       <r>    -9.0786     0.0000     0.0000 </r>
       <r>    -8.9891    -0.0000    -0.0000 </r>
       <r>    -8.8996    -0.0000    -0.0000 </r>
       <r>    -8.8101    -0.0000    -0.0000 </r>
       <r>    -8.7206    -0.0000    -0.0000 </r>
       <r>    -8.6311    -0.0000    -0.0000 </r>
       <r>    -8.5416    -0.0000    -0.0000 </r>
       <r>    -8.4521    -0.0000    -0.0000 </r>
       <r>    -8.3626    -0.0000    -0.0000 </r>
       <r>    -8.2731    -0.0000    -0.0000 </r>
       <r>    -8.1836    -0.0000    -0.0000 </r>
       <r>    -8.0941    -0.0000    -0.0000 </r>
       <r>    -8.0046    -0.0000    -0.0000 </r>
       <r>    -7.9151    -0.0002    -0.0000 </r>
       <r>    -7.8256    -0.0014    -0.0001 </r>
       <r>    -7.7361    -0.0074    -0.0008 </r>
       <r>    -7.6466    -0.0236    -0.0029 </r>
       <r>    -7.5571    -0.0428    -0.0068 </r>
       <r>    -7.4676    -0.0194    -0.0085 </r>
       <r>    -7.3781     0.1545     0.0053 </r>
       <r>    -7.2886     0.6589     0.0643 </r>
       <r>    -7.1991     1.6121     0.2086 </r>
       <r>    -7.1096     2.8956     0.4677 </r>
       <r>    -7.0201     4.1141     0.8360 </r>
       <r>    -6.9306     4.5991     1.2476 </r>
       <r>    -6.8411     4.0315     1.6084 </r>
       <r>    -6.7516     2.9917     1.8761 </r>
       <r>    -6.6621     2.6309     2.1116 </r>
       <r>    -6.5726     4.1182     2.4802 </r>
       <r>    -6.4831     7.3101     3.1344 </r>
       <r>    -6.3936    10.0995     4.0383 </r>
       <r>    -6.3041    10.3075     4.9609 </r>
       <r>    -6.2146     7.5101     5.6330 </r>
       <r>    -6.1251     3.5709     5.9526 </r>
       <r>    -6.0356     1.7686     6.1109 </r>
       <r>    -5.9461     3.5580     6.4293 </r>
       <r>    -5.8566     7.3516     7.0873 </r>
       <r>    -5.7671    10.6953     8.0445 </r>
       <r>    -5.6776    12.0250     9.1208 </r>
       <r>    -5.5881    11.6736    10.1655 </r>
       <r>    -5.4986    10.9381    11.1445 </r>
       <r>    -5.4091     9.6758    12.0105 </r>
       <r>    -5.3196     7.4458    12.6769 </r>
       <r>    -5.2301     6.2232    13.2339 </r>
       <r>    -5.1406     8.6441    14.0075 </r>
       <r>    -5.0511    13.8185    15.2442 </r>
       <r>    -4.9616    16.7474    16.7431 </r>
       <r>    -4.8721    13.3529    17.9382 </r>
       <r>    -4.7826     6.3217    18.5040 </r>
       <r>    -4.6931     2.9025    18.7638 </r>
       <r>    -4.6036     6.2530    19.3234 </r>
       <r>    -4.5141    12.8891    20.4770 </r>
       <r>    -4.4246    18.2426    22.1097 </r>
       <r>    -4.3351    19.9622    23.8963 </r>
       <r>    -4.2456    17.4284    25.4561 </r>
       <r>    -4.1561    14.1174    26.7196 </r>
       <r>    -4.0666    16.2482    28.1739 </r>
       <r>    -3.9771    22.6058    30.1971 </r>
       <r>    -3.8876    23.8773    32.3341 </r>
       <r>    -3.7981    17.2500    33.8779 </r>
       <r>    -3.7086    10.8256    34.8468 </r>
       <r>    -3.6191    11.0966    35.8400 </r>
       <r>    -3.5296    16.3589    37.3041 </r>
       <r>    -3.4401    21.7199    39.2480 </r>
       <r>    -3.3506    22.9860    41.3052 </r>
       <r>    -3.2611    19.8391    43.0808 </r>
       <r>    -3.1716    17.0627    44.6079 </r>
       <r>    -3.0821    17.3429    46.1601 </r>
       <r>    -2.9926    19.0175    47.8622 </r>
       <r>    -2.9031    22.2628    49.8547 </r>
       <r>    -2.8136    26.7591    52.2496 </r>
       <r>    -2.7241    27.4127    54.7031 </r>
       <r>    -2.6346    21.3766    56.6162 </r>
       <r>    -2.5451    13.6162    57.8349 </r>
       <r>    -2.4556    10.5880    58.7825 </r>
       <r>    -2.3661    12.8238    59.9302 </r>
       <r>    -2.2766    15.7136    61.3366 </r>
       <r>    -2.1871    14.9161    62.6716 </r>
       <r>    -2.0976    10.1695    63.5817 </r>
       <r>    -2.0081     4.5459    63.9886 </r>
       <r>    -1.9186     0.9145    64.0705 </r>
       <r>    -1.8291    -0.3071    64.0430 </r>
       <r>    -1.7396    -0.3176    64.0145 </r>
       <r>    -1.6501    -0.1264    64.0032 </r>
       <r>    -1.5606    -0.0307    64.0005 </r>
       <r>    -1.4711    -0.0049    64.0001 </r>
       <r>    -1.3816    -0.0005    64.0000 </r>
       <r>    -1.2921    -0.0000    64.0000 </r>
       <r>    -1.2026    -0.0000    64.0000 </r>
       <r>    -1.1131    -0.0004    64.0000 </r>
       <r>    -1.0236    -0.0031    63.9997 </r>
       <r>    -0.9341    -0.0145    63.9984 </r>
       <r>    -0.8446    -0.0386    63.9949 </r>
       <r>    -0.7551    -0.0313    63.9921 </r>
       <r>    -0.6656     0.1258    64.0034 </r>
       <r>    -0.5761     0.4448    64.0432 </r>
       <r>    -0.4866     0.6461    64.1010 </r>
       <r>    -0.3971     0.7956    64.1722 </r>
       <r>    -0.3076     2.1924    64.3685 </r>
       <r>    -0.2181     5.8537    64.8924 </r>
       <r>    -0.1286     9.7496    65.7649 </r>
       <r>    -0.0391    10.4746    66.7024 </r>
       <r>     0.0504     8.0146    67.4197 </r>
       <r>     0.1399     6.2173    67.9762 </r>
       <r>     0.2294     8.3786    68.7260 </r>
       <r>     0.3189    13.9087    69.9709 </r>
       <r>     0.4084    19.7666    71.7400 </r>
       <r>     0.4979    23.2747    73.8230 </r>
       <r>     0.5874    23.9901    75.9702 </r>
       <r>     0.6769    24.9632    78.2044 </r>
       <r>     0.7664    28.9785    80.7979 </r>
       <r>     0.8559    32.6790    83.7227 </r>
       <r>     0.9454    31.3291    86.5266 </r>
       <r>     1.0349    28.1239    89.0437 </r>
       <r>     1.1244    29.9255    91.7220 </r>
       <r>     1.2139    36.0511    94.9486 </r>
       <r>     1.3034    37.9076    98.3413 </r>
       <r>     1.3929    29.8186   101.0101 </r>
       <r>     1.4824    15.9896   102.4411 </r>
       <r>     1.5719     4.6480   102.8571 </r>
       <r>     1.6614    -0.5617   102.8068 </r>
       <r>     1.7509    -0.9240   102.7241 </r>
       <r>     1.8404     2.1965   102.9207 </r>
       <r>     1.9299     9.3836   103.7606 </r>
       <r>     2.0194    19.3639   105.4936 </r>
       <r>     2.1089    25.6835   107.7923 </r>
       <r>     2.1984    22.7423   109.8277 </r>
       <r>     2.2879    13.7155   111.0553 </r>
       <r>     2.3773     6.6398   111.6495 </r>
       <r>     2.4668     5.7634   112.1653 </r>
       <r>     2.5563    10.4308   113.0989 </r>
       <r>     2.6458    16.4181   114.5683 </r>
       <r>     2.7353    17.6923   116.1517 </r>
       <r>     2.8248    14.0524   117.4094 </r>
       <r>     2.9143    12.6638   118.5428 </r>
       <r>     3.0038    16.7229   120.0395 </r>
       <r>     3.0933    22.2794   122.0335 </r>
       <r>     3.1828    27.3146   124.4782 </r>
       <r>     3.2723    31.7612   127.3208 </r>
       <r>     3.3618    32.3811   130.2189 </r>
       <r>     3.4513    28.9991   132.8143 </r>
       <r>     3.5408    26.1764   135.1571 </r>
       <r>     3.6303    23.6821   137.2766 </r>
       <r>     3.7198    18.4058   138.9239 </r>
       <r>     3.8093    13.2249   140.1076 </r>
       <r>     3.8988    14.5294   141.4079 </r>
       <r>     3.9883    21.6402   143.3447 </r>
       <r>     4.0778    25.0860   145.5899 </r>
       <r>     4.1673    20.6404   147.4372 </r>
       <r>     4.2568    17.5764   149.0103 </r>
       <r>     4.3463    23.7603   151.1369 </r>
       <r>     4.4358    32.9855   154.0890 </r>
       <r>     4.5253    36.8429   157.3865 </r>
       <r>     4.6148    35.6386   160.5761 </r>
       <r>     4.7043    33.3219   163.5584 </r>
       <r>     4.7938    33.4467   166.5519 </r>
       <r>     4.8833    36.0738   169.7805 </r>
       <r>     4.9728    36.0938   173.0109 </r>
       <r>     5.0623    32.4040   175.9110 </r>
       <r>     5.1518    30.0435   178.5999 </r>
       <r>     5.2413    30.5136   181.3308 </r>
       <r>     5.3308    30.7889   184.0864 </r>
       <r>     5.4203    30.5515   186.8208 </r>
       <r>     5.5098    33.7532   189.8417 </r>
       <r>     5.5993    40.3896   193.4565 </r>
       <r>     5.6888    42.8629   197.2928 </r>
       <r>     5.7783    38.5990   200.7473 </r>
       <r>     5.8678    34.8506   203.8665 </r>
       <r>     5.9573    34.0736   206.9160 </r>
       <r>     6.0468    31.4183   209.7280 </r>
       <r>     6.1363    27.8282   212.2186 </r>
       <r>     6.2258    28.7211   214.7891 </r>
       <r>     6.3153    32.8089   217.7255 </r>
       <r>     6.4048    35.3989   220.8937 </r>
       <r>     6.4943    34.7550   224.0042 </r>
       <r>     6.5838    30.7747   226.7586 </r>
       <r>     6.6733    26.9614   229.1716 </r>
       <r>     6.7628    28.5933   231.7307 </r>
       <r>     6.8523    35.2998   234.8900 </r>
       <r>     6.9418    40.1768   238.4858 </r>
       <r>     7.0313    36.1730   241.7233 </r>
       <r>     7.1208    24.5613   243.9215 </r>
       <r>     7.2103    14.4104   245.2112 </r>
       <r>     7.2998    11.7709   246.2647 </r>
       <r>     7.3893    14.8839   247.5968 </r>
       <r>     7.4788    19.1252   249.3085 </r>
       <r>     7.5683    21.0190   251.1897 </r>
       <r>     7.6578    19.1354   252.9023 </r>
       <r>     7.7473    14.0296   254.1580 </r>
       <r>     7.8368     8.1252   254.8852 </r>
       <r>     7.9263     4.6209   255.2987 </r>
       <r>     8.0158     3.7665   255.6358 </r>
       <r>     8.1053     2.9561   255.9004 </r>
       <r>     8.1948     1.3282   256.0193 </r>
       <r>     8.2843     0.1167   256.0297 </r>
       <r>     8.3738    -0.1896   256.0127 </r>
       <r>     8.4633    -0.1079   256.0031 </r>
       <r>     8.5528    -0.0292   256.0005 </r>
       <r>     8.6423    -0.0047   256.0000 </r>
       <r>     8.7318    -0.0008   256.0000 </r>
       <r>     8.8213    -0.0023   255.9998 </r>
       <r>     8.9108    -0.0107   255.9988 </r>
       <r>     9.0003    -0.0280   255.9963 </r>
       <r>     9.0898    -0.0198   255.9945 </r>
       <r>     9.1793     0.1105   256.0044 </r>
       <r>     9.2688     0.4012   256.0403 </r>
       <r>     9.3583     0.6595   256.0994 </r>
       <r>     9.4478     0.7071   256.1626 </r>
       <r>     9.5373     0.8575   256.2394 </r>
       <r>     9.6268     1.4288   256.3673 </r>
       <r>     9.7163     1.7899   256.5275 </r>
       <r>     9.8058     1.2163   256.6363 </r>
       <r>     9.8953     0.2358   256.6574 </r>
       <r>     9.9848    -0.1086   256.6477 </r>
       <r>    10.0743     0.6757   256.7082 </r>
       <r>    10.1638     2.2816   256.9124 </r>
       <r>    10.2533     3.9784   257.2684 </r>
       <r>    10.3428     5.9304   257.7992 </r>
       <r>    10.4323     8.6102   258.5698 </r>
       <r>    10.5218    10.9174   259.5469 </r>
       <r>    10.6113    11.5166   260.5777 </r>
       <r>    10.7008    10.2569   261.4956 </r>
       <r>    10.7903     7.2499   262.1445 </r>
       <r>    10.8798     3.3487   262.4442 </r>
       <r>    10.9693     0.3875   262.4789 </r>
       <r>    11.0588    -0.7012   262.4161 </r>
       <r>    11.1483     0.0923   262.4244 </r>
       <r>    11.2378     2.8522   262.6797 </r>
       <r>    11.3273     6.2941   263.2430 </r>
       <r>    11.4168     8.3992   263.9947 </r>
       <r>    11.5063     9.8085   264.8726 </r>
       <r>    11.5958    11.6802   265.9180 </r>
       <r>    11.6853    13.0863   267.0892 </r>
       <r>    11.7748    14.7246   268.4070 </r>
       <r>    11.8643    18.0355   270.0212 </r>
       <r>    11.9538    20.8050   271.8832 </r>
       <r>    12.0433    20.5137   273.7192 </r>
       <r>    12.1328    17.6968   275.3031 </r>
       <r>    12.2223    12.9875   276.4654 </r>
       <r>    12.3118     6.9924   277.0913 </r>
       <r>    12.4013     3.3954   277.3951 </r>
       <r>    12.4908     6.1740   277.9477 </r>
       <r>    12.5803    13.8526   279.1875 </r>
       <r>    12.6698    20.9984   281.0669 </r>
       <r>    12.7593    25.5233   283.3512 </r>
       <r>    12.8488    28.8522   285.9334 </r>
       <r>    12.9383    30.8541   288.6949 </r>
       <r>    13.0278    31.9689   291.5561 </r>
       <r>    13.1173    33.3896   294.5444 </r>
       <r>    13.2068    32.0982   297.4172 </r>
       <r>    13.2963    24.7412   299.6316 </r>
       <r>    13.3858    15.9846   301.0622 </r>
       <r>    13.4753    15.6954   302.4669 </r>
       <r>    13.5648    25.3156   304.7326 </r>
       <r>    13.6543    34.2909   307.8017 </r>
       <r>    13.7438    34.2916   310.8707 </r>
       <r>    13.8333    28.9985   313.4661 </r>
       <r>    13.9228    26.8113   315.8657 </r>
       <r>    14.0123    29.6315   318.5177 </r>
       <r>    14.1018    31.8021   321.3640 </r>
       <r>    14.1913    27.9881   323.8689 </r>
       <r>    14.2808    18.6599   325.5390 </r>
       <r>    14.3703     8.6087   326.3095 </r>
       <r>    14.4598     2.8579   326.5652 </r>
       <r>    14.5493     4.0587   326.9285 </r>
       <r>    14.6388    11.3731   327.9464 </r>
       <r>    14.7283    19.3427   329.6775 </r>
       <r>    14.8178    21.6439   331.6147 </r>
       <r>    14.9073    17.8922   333.2160 </r>
       <r>    14.9968    11.6837   334.2617 </r>
       <r>    15.0863     5.5052   334.7544 </r>
       <r>    15.1758     1.3316   334.8736 </r>
       <r>    15.2653     0.6601   334.9327 </r>
       <r>    15.3548     2.5954   335.1649 </r>
       <r>    15.4443     4.2484   335.5452 </r>
       <r>    15.5338     3.6218   335.8693 </r>
       <r>    15.6233     1.6150   336.0139 </r>
       <r>    15.7128     0.1835   336.0303 </r>
       <r>    15.8023    -0.1872   336.0135 </r>
       <r>    15.8918    -0.1135   336.0034 </r>
       <r>    15.9813    -0.0317   336.0005 </r>
       <r>    16.0708    -0.0053   336.0001 </r>
       <r>    16.1603    -0.0006   336.0000 </r>
       <r>    16.2498    -0.0000   336.0000 </r>
       <r>    16.3393    -0.0000   336.0000 </r>
       <r>    16.4288    -0.0000   336.0000 </r>
       <r>    16.5183    -0.0000   336.0000 </r>
       <r>    16.6078    -0.0000   336.0000 </r>
       <r>    16.6973    -0.0000   336.0000 </r>
       <r>    16.7868    -0.0000   336.0000 </r>
       <r>    16.8763     0.0000   336.0000 </r>
       <r>    16.9658     0.0000   336.0000 </r>
       <r>    17.0553     0.0000   336.0000 </r>
       <r>    17.1448     0.0000   336.0000 </r>
       <r>    17.2343     0.0000   336.0000 </r>
       <r>    17.3238     0.0000   336.0000 </r>
       <r>    17.4133     0.0000   336.0000 </r>
       <r>    17.5028     0.0000   336.0000 </r>
      </set>
     </set>
    </array>
   </total>
  </dos>
 </calculation>
 <structure name="finalpos" >
  <crystal>
   <varray name="basis" >
    <v>       8.74331558       0.00000000       0.00000000 </v>
    <v>       0.00000000       8.74331558       0.00000000 </v>
    <v>       0.00000000       0.00000000       8.74331558 </v>
   </varray>
   <i name="volume">    668.38771987 </i>
   <varray name="rec_basis" >
    <v>       0.11437309       0.00000000       0.00000000 </v>
    <v>       0.00000000       0.11437309       0.00000000 </v>
    <v>       0.00000000       0.00000000       0.11437309 </v>
   </varray>
  </crystal>
  <varray name="positions" >
   <v>       0.12730239       0.12369075       0.12588633 </v>
   <v>       0.12566814       0.37454800       0.37484299 </v>
   <v>       0.37654498       0.12602440       0.37446328 </v>
   <v>       0.37626314       0.37067697       0.12757594 </v>
   <v>       0.12598153       0.12667527       0.62422628 </v>
   <v>       0.12288974       0.37641092       0.87104146 </v>
   <v>       0.37672165       0.12601965       0.87522317 </v>
   <v>       0.37564281       0.37491076       0.62496527 </v>
   <v>       0.12296120       0.62563287       0.12896984 </v>
   <v>       0.12395120       0.87536419       0.37591474 </v>
   <v>       0.37375844       0.62389404       0.37592123 </v>
   <v>       0.37808518       0.87539410       0.12594450 </v>
   <v>       0.12475199       0.62497896       0.61991655 </v>
   <v>       0.12615053       0.87467291       0.87213753 </v>
   <v>       0.37444246       0.62603166       0.88037792 </v>
   <v>       0.37524050       0.87292308       0.62334783 </v>
   <v>       0.62375166       0.12198099       0.12110556 </v>
   <v>       0.62944428       0.37044014       0.37248236 </v>
   <v>       0.87810760       0.12596045       0.37515626 </v>
   <v>       0.87280823       0.37487748       0.12433586 </v>
   <v>       0.63044144       0.12588975       0.62016421 </v>
   <v>       0.62733628       0.37653125       0.87754527 </v>
   <v>       0.87503047       0.12408615       0.87151493 </v>
   <v>       0.87359875       0.37393589       0.62489075 </v>
   <v>       0.62027752       0.62464341       0.12473388 </v>
   <v>       0.62631391       0.88053631       0.37372681 </v>
   <v>       0.87312806       0.62814387       0.37336012 </v>
   <v>       0.87199594       0.87332886       0.12387241 </v>
   <v>       0.62609765       0.62709416       0.62542312 </v>
   <v>       0.62568809       0.87082545       0.87965994 </v>
   <v>       0.87639226       0.62563271       0.87748393 </v>
   <v>       0.87533673       0.87419280       0.62763697 </v>
   <v>       0.99831280       0.00404621       0.00016833 </v>
   <v>       0.99858760       0.25802321       0.25164980 </v>
   <v>       0.25038684       0.00264561       0.25029830 </v>
   <v>       0.24696883       0.25086910       0.99992835 </v>
   <v>       0.99512015       0.00026775       0.49848875 </v>
   <v>       0.99947064       0.25165666       0.74768519 </v>
   <v>       0.25146770       0.00429557       0.75033919 </v>
   <v>       0.25276317       0.25427842       0.50223644 </v>
   <v>       0.99941812       0.49927713       0.00225644 </v>
   <v>       0.99678597       0.74638020       0.24891055 </v>
   <v>       0.25126217       0.49929025       0.24693440 </v>
   <v>       0.24794582       0.74853656       0.99626132 </v>
   <v>       0.99646459       0.50292057       0.49420825 </v>
   <v>       0.99882391       0.74898726       0.74978620 </v>
   <v>       0.25218680       0.50194122       0.75003976 </v>
   <v>       0.24591895       0.74842790       0.49762273 </v>
   <v>       0.50016849       0.00277383       0.99677187 </v>
   <v>       0.50250216       0.25106515       0.25226518 </v>
   <v>       0.74685330       0.99546770       0.24681626 </v>
   <v>       0.75477567       0.25299197       0.99564927 </v>
   <v>       0.50013709       0.99875481       0.49829006 </v>
   <v>       0.49891276       0.24963451       0.74472332 </v>
   <v>       0.75213561       0.99840976       0.74723863 </v>
   <v>       0.75358664       0.24979637       0.49901228 </v>
   <v>       0.50203894       0.49968045       0.00084277 </v>
   <v>       0.49843016       0.74943916       0.24832854 </v>
   <v>       0.74904239       0.50301591       0.24662550 </v>
   <v>       0.74984170       0.75329621       0.99992746 </v>
   <v>       0.49506648       0.50252907       0.49748926 </v>
   <v>       0.50083908       0.74749295       0.74967618 </v>
   <v>       0.75135909       0.49959198       0.74824455 </v>
   <v>       0.74916385       0.74824755       0.50498128 </v>
  </varray>
 </structure>
</modeling>
