unknown system                          
           1
     8.743316    0.000000    0.000000
     0.000000    8.743316    0.000000
     0.000000    0.000000    8.743316
   C    Si
    32    32
Direct configuration=     1
   0.12730239  0.12369075  0.12588633
   0.12566814  0.37454800  0.37484299
   0.37654498  0.12602440  0.37446328
   0.37626314  0.37067697  0.12757594
   0.12598153  0.12667527  0.62422628
   0.12288974  0.37641092  0.87104146
   0.37672165  0.12601965  0.87522317
   0.37564281  0.37491076  0.62496527
   0.12296120  0.62563287  0.12896984
   0.12395120  0.87536419  0.37591474
   0.37375844  0.62389404  0.37592123
   0.37808518  0.87539410  0.12594450
   0.12475199  0.62497896  0.61991655
   0.12615053  0.87467291  0.87213753
   0.37444246  0.62603166  0.88037792
   0.37524050  0.87292308  0.62334783
   0.62375166  0.12198099  0.12110556
   0.62944428  0.37044014  0.37248236
   0.87810760  0.12596045  0.37515626
   0.87280823  0.37487748  0.12433586
   0.63044144  0.12588975  0.62016421
   0.62733628  0.37653125  0.87754527
   0.87503047  0.12408615  0.87151493
   0.87359875  0.37393589  0.62489075
   0.62027752  0.62464341  0.12473388
   0.62631391  0.88053631  0.37372681
   0.87312806  0.62814387  0.37336012
   0.87199594  0.87332886  0.12387241
   0.62609765  0.62709416  0.62542312
   0.62568809  0.87082545  0.87965994
   0.87639226  0.62563271  0.87748393
   0.87533673  0.87419280  0.62763697
   0.99831280  0.00404621  0.00016833
   0.99858760  0.25802321  0.25164980
   0.25038684  0.00264561  0.25029830
   0.24696883  0.25086910  0.99992835
   0.99512015  0.00026775  0.49848875
   0.99947064  0.25165666  0.74768519
   0.25146770  0.00429557  0.75033919
   0.25276317  0.25427842  0.50223644
   0.99941812  0.49927713  0.00225644
   0.99678597  0.74638020  0.24891055
   0.25126217  0.49929025  0.24693440
   0.24794582  0.74853656  0.99626132
   0.99646459  0.50292057  0.49420825
   0.99882391  0.74898726  0.74978620
   0.25218680  0.50194122  0.75003976
   0.24591895  0.74842790  0.49762273
   0.50016849  0.00277383  0.99677187
   0.50250216  0.25106515  0.25226518
   0.74685330  0.99546770  0.24681626
   0.75477567  0.25299197  0.99564927
   0.50013709  0.99875481  0.49829006
   0.49891276  0.24963451  0.74472332
   0.75213561  0.99840976  0.74723863
   0.75358664  0.24979637  0.49901228
   0.50203894  0.49968045  0.00084277
   0.49843016  0.74943916  0.24832854
   0.74904239  0.50301591  0.24662550
   0.74984170  0.75329621  0.99992746
   0.49506648  0.50252907  0.49748926
   0.50083908  0.74749295  0.74967618
   0.75135909  0.49959198  0.74824455
   0.74916385  0.74824755  0.50498128
