       N       E                     dE             d eps       ncg     rms          rms(c)
DAV:   1     0.669901421709E+03    0.66990E+03   -0.99561E+04  4704   0.111E+03
DAV:   2    -0.461465092503E+03   -0.11314E+04   -0.10708E+04  5808   0.221E+02
DAV:   3    -0.537097973669E+03   -0.75633E+02   -0.74921E+02  5680   0.563E+01
DAV:   4    -0.538782796433E+03   -0.16848E+01   -0.16776E+01  5680   0.910E+00
DAV:   5    -0.538830513741E+03   -0.47717E-01   -0.47640E-01  5584   0.145E+00    0.493E+01
DAV:   6    -0.481933427540E+03    0.56897E+02   -0.19080E+02  5336   0.235E+01    0.219E+01
DAV:   7    -0.480594299292E+03    0.13391E+01   -0.15860E+01  5848   0.709E+00    0.977E+00
DAV:   8    -0.480363931117E+03    0.23037E+00   -0.10294E+00  5392   0.199E+00    0.269E+00
DAV:   9    -0.480347459994E+03    0.16471E-01   -0.14856E-01  5488   0.842E-01    0.451E-01
DAV:  10    -0.480350268214E+03   -0.28082E-02   -0.14208E-02  5728   0.269E-01    0.252E-01
DAV:  11    -0.480351396595E+03   -0.11284E-02   -0.22773E-03  5224   0.121E-01    0.967E-02
DAV:  12    -0.480351483279E+03   -0.86683E-04   -0.37349E-04  6024   0.487E-02    0.431E-02
DAV:  13    -0.480351499837E+03   -0.16558E-04   -0.12118E-04  5120   0.251E-02    0.104E-02
DAV:  14    -0.480351503841E+03   -0.40047E-05   -0.56449E-06  5640   0.594E-03    0.550E-03
DAV:  15    -0.480351505993E+03   -0.21518E-05   -0.33679E-06  5664   0.406E-03    0.423E-03
DAV:  16    -0.480351505939E+03    0.54410E-07   -0.53989E-07  5752   0.192E-03    0.123E-03
DAV:  17    -0.480351506422E+03   -0.48344E-06   -0.13753E-07  5320   0.811E-04    0.779E-04
DAV:  18    -0.480351506460E+03   -0.37657E-07   -0.83955E-09  2752   0.256E-04    0.347E-04
DAV:  19    -0.480351506433E+03    0.27096E-07   -0.10523E-08  2696   0.226E-04    0.139E-04
DAV:  20    -0.480351506440E+03   -0.70686E-08   -0.16928E-09  2688   0.123E-04
   1 F= -.48035151E+03 E0= -.48035478E+03  d E =0.983182E-02
