unknown system                          
           1
     8.743316    0.000000    0.000000
     0.000000    8.743316    0.000000
     0.000000    0.000000    8.743316
   C    Si
    32    32
Direct configuration=     1
   0.12494966  0.12352598  0.11831099
   0.12624835  0.37587337  0.37271635
   0.37302059  0.12709171  0.37198893
   0.37315847  0.36817778  0.12683225
   0.12537033  0.12325053  0.62560255
   0.12372401  0.37006177  0.87929006
   0.37401983  0.12289847  0.87593251
   0.36944431  0.37840943  0.62664504
   0.13021578  0.62803292  0.12717212
   0.12527638  0.87806882  0.38062390
   0.37199905  0.62334389  0.37587702
   0.37540392  0.86987271  0.12671054
   0.13296112  0.62579513  0.62299844
   0.12473091  0.87564726  0.87086122
   0.37636568  0.62389083  0.87413722
   0.37186783  0.86858226  0.62365675
   0.62507105  0.12294351  0.12584429
   0.62508670  0.37148956  0.37915029
   0.87377256  0.12906118  0.37398045
   0.87763081  0.37320351  0.12290469
   0.62297191  0.12644598  0.62993098
   0.62311454  0.37208234  0.87336582
   0.87281852  0.12568738  0.87357862
   0.87364828  0.36866430  0.61998567
   0.62575040  0.62158215  0.12657453
   0.62210254  0.87832989  0.37063450
   0.87552357  0.62299921  0.37899150
   0.87480175  0.87453265  0.12597123
   0.62938935  0.62763208  0.62102344
   0.62736724  0.87967355  0.87095568
   0.87084210  0.62718583  0.87233498
   0.87997454  0.88022200  0.62657891
   0.00049720  0.00146984  0.99591103
   0.99756738  0.24360775  0.24796815
   0.25550564  0.00130123  0.25184016
   0.24753380  0.24652497  0.00222460
   0.99859714  0.99421077  0.50117890
   0.00339626  0.25424254  0.75023264
   0.24882667  0.00335831  0.75423950
   0.25407506  0.24894300  0.50323082
   0.00367124  0.50160219  0.00300233
   0.00046132  0.75036646  0.25361409
   0.24941608  0.49502590  0.24253101
   0.24278498  0.75549920  0.99450760
   0.00127207  0.49978145  0.50197797
   0.00059314  0.74577819  0.75342817
   0.24847732  0.50639608  0.75082994
   0.24943305  0.74850918  0.50190136
   0.50271676  0.00205505  0.99976822
   0.50055543  0.25008896  0.25289751
   0.75407634  0.99961348  0.25152190
   0.75078628  0.24884926  0.00667321
   0.49781783  0.99877503  0.49814771
   0.49522729  0.24763885  0.74612286
   0.75535630  0.99972087  0.75070508
   0.74474875  0.25406996  0.50013135
   0.49976656  0.49815919  0.99544507
   0.49763696  0.75115243  0.24573971
   0.75181752  0.50148485  0.25063678
   0.75083261  0.74826012  0.00106554
   0.49868453  0.49934566  0.50284308
   0.49935170  0.74848217  0.74891683
   0.75013919  0.50068468  0.75010228
   0.74705176  0.75224344  0.50818367
