       N       E                     dE             d eps       ncg     rms          rms(c)
DAV:   1     0.669504405854E+03    0.66950E+03   -0.99560E+04  4704   0.111E+03
DAV:   2    -0.462526797483E+03   -0.11320E+04   -0.10722E+04  5840   0.221E+02
DAV:   3    -0.537520943462E+03   -0.74994E+02   -0.74307E+02  5688   0.561E+01
DAV:   4    -0.539172983279E+03   -0.16520E+01   -0.16453E+01  5688   0.904E+00
DAV:   5    -0.539218616893E+03   -0.45634E-01   -0.45561E-01  5576   0.143E+00    0.492E+01
DAV:   6    -0.482425950107E+03    0.56793E+02   -0.19052E+02  5352   0.235E+01    0.219E+01
DAV:   7    -0.481062415827E+03    0.13635E+01   -0.15737E+01  5856   0.705E+00    0.975E+00
DAV:   8    -0.480834362066E+03    0.22805E+00   -0.10191E+00  5408   0.196E+00    0.264E+00
DAV:   9    -0.480817882800E+03    0.16479E-01   -0.14176E-01  5464   0.814E-01    0.436E-01
DAV:  10    -0.480820981934E+03   -0.30991E-02   -0.12633E-02  5640   0.248E-01    0.233E-01
DAV:  11    -0.480821955544E+03   -0.97361E-03   -0.18422E-03  5200   0.111E-01    0.791E-02
DAV:  12    -0.480821974577E+03   -0.19034E-04   -0.27372E-04  5944   0.408E-02    0.389E-02
DAV:  13    -0.480821986437E+03   -0.11860E-04   -0.79540E-05  5168   0.215E-02    0.106E-02
DAV:  14    -0.480821992656E+03   -0.62184E-05   -0.68156E-06  5456   0.560E-03    0.521E-03
DAV:  15    -0.480821994398E+03   -0.17422E-05   -0.17038E-06  5680   0.294E-03    0.380E-03
DAV:  16    -0.480821994135E+03    0.26316E-06   -0.16725E-07  5856   0.108E-03    0.144E-03
DAV:  17    -0.480821994321E+03   -0.18608E-06   -0.75494E-08  5120   0.593E-04    0.708E-04
DAV:  18    -0.480821994324E+03   -0.29249E-08   -0.54447E-09  2776   0.200E-04
   1 F= -.48082199E+03 E0= -.48082532E+03  d E =0.998962E-02
