<?xml version="1.0" encoding="ISO-8859-1"?>
<modeling>
 <generator>
  <i name="program" type="string">vasp </i>
  <i name="version" type="string">6.2.1  </i>
  <i name="subversion" type="string">16May21 (build Jun 06 2020 10:27:25) complex                          parallel </i>
  <i name="platform" type="string">LinuxIFC </i>
  <i name="date" type="string">2024 01 12 </i>
  <i name="time" type="string">18:07:56 </i>
 </generator>
 <incar>
  <i type="int" name="NELM">    60</i>
  <i type="int" name="IBRION">     1</i>
  <i name="EDIFF">      0.00000001</i>
  <i type="int" name="NSW">     0</i>
  <i type="int" name="ISIF">     3</i>
  <i type="int" name="ISYM">     0</i>
  <i type="logical" name="LWAVE"> F  </i>
  <i type="logical" name="LCHARG"> F  </i>
  <i type="string" name="GGA">PE</i>
 </incar>
 <primitive_cell>
  <structure name="primitive_cell" >
   <crystal>
    <varray name="basis" >
     <v>       8.74331558       0.00000000       0.00000000 </v>
     <v>       0.00000000       8.74331558       0.00000000 </v>
     <v>       0.00000000       0.00000000       8.74331558 </v>
    </varray>
    <i name="volume">    668.38771987 </i>
    <varray name="rec_basis" >
     <v>       0.11437309       0.00000000       0.00000000 </v>
     <v>       0.00000000       0.11437309       0.00000000 </v>
     <v>       0.00000000       0.00000000       0.11437309 </v>
    </varray>
   </crystal>
   <varray name="positions" >
    <v>       0.12581621       0.12480646       0.12205046 </v>
    <v>       0.12816583       0.37476936       0.37064648 </v>
    <v>       0.37288013       0.12640141       0.37197718 </v>
    <v>       0.37373154       0.37150034       0.12704419 </v>
    <v>       0.12618677       0.11991612       0.62655141 </v>
    <v>       0.12751552       0.37747746       0.87396159 </v>
    <v>       0.37532855       0.12329769       0.87904435 </v>
    <v>       0.37312433       0.37276250       0.62931103 </v>
    <v>       0.12190253       0.62822196       0.12365256 </v>
    <v>       0.12404771       0.87778598       0.37916485 </v>
    <v>       0.37465393       0.62773773       0.37780452 </v>
    <v>       0.37644280       0.86808509       0.12181940 </v>
    <v>       0.12556948       0.62400888       0.62743594 </v>
    <v>       0.12452106       0.87494201       0.87866375 </v>
    <v>       0.37737754       0.61787049       0.87644435 </v>
    <v>       0.37592462       0.86940599       0.62468330 </v>
    <v>       0.62608369       0.12571696       0.12768366 </v>
    <v>       0.62691035       0.37439531       0.37829654 </v>
    <v>       0.87877037       0.12453496       0.37577617 </v>
    <v>       0.87450586       0.37454813       0.12528585 </v>
    <v>       0.62613537       0.12762946       0.62524315 </v>
    <v>       0.62596531       0.37598110       0.87358491 </v>
    <v>       0.87608975       0.12034341       0.87715958 </v>
    <v>       0.87578796       0.37374398       0.62302863 </v>
    <v>       0.62589693       0.62691413       0.12334624 </v>
    <v>       0.62713467       0.87631331       0.37199239 </v>
    <v>       0.87717579       0.62252582       0.37617607 </v>
    <v>       0.87804945       0.87396017       0.12452352 </v>
    <v>       0.62109787       0.62053164       0.62602279 </v>
    <v>       0.62189286       0.87813959       0.87428822 </v>
    <v>       0.87588666       0.62397213       0.87778550 </v>
    <v>       0.87644102       0.87384808       0.62339812 </v>
    <v>       0.00401916       0.99826351       0.00244230 </v>
    <v>       0.99995073       0.24712323       0.24873466 </v>
    <v>       0.25069707       0.99571591       0.25368677 </v>
    <v>       0.24831496       0.25257032       0.00251058 </v>
    <v>       0.99851133       0.99723094       0.50057801 </v>
    <v>       0.00058610       0.24862508       0.74862287 </v>
    <v>       0.24654751       0.99750716       0.74820019 </v>
    <v>       0.25056460       0.25189925       0.50041921 </v>
    <v>       0.00006429       0.49720988       0.99829431 </v>
    <v>       0.99735524       0.74776996       0.25017509 </v>
    <v>       0.24647652       0.49769613       0.24897149 </v>
    <v>       0.25096957       0.75197883       0.00148629 </v>
    <v>       0.00200092       0.49654256       0.49920463 </v>
    <v>       0.00335545       0.74567744       0.75065054 </v>
    <v>       0.24880136       0.49938356       0.74951980 </v>
    <v>       0.24852363       0.74781195       0.50260281 </v>
    <v>       0.50185828       0.00434102       0.99844088 </v>
    <v>       0.49621118       0.25480608       0.25203177 </v>
    <v>       0.74521587       0.00186357       0.25080835 </v>
    <v>       0.75260288       0.24495653       0.99776782 </v>
    <v>       0.49515059       0.99642894       0.49969802 </v>
    <v>       0.49586919       0.25029457       0.74734512 </v>
    <v>       0.75095948       0.00230785       0.75685128 </v>
    <v>       0.74721681       0.25347126       0.49911474 </v>
    <v>       0.49675276       0.49692621       0.99868281 </v>
    <v>       0.50354574       0.75389518       0.24576462 </v>
    <v>       0.74894598       0.50107616       0.25321475 </v>
    <v>       0.75274194       0.75202610       0.00029344 </v>
    <v>       0.50493336       0.50175517       0.50249577 </v>
    <v>       0.49745498       0.74901405       0.74489318 </v>
    <v>       0.75166746       0.50101169       0.74498433 </v>
    <v>       0.75000958       0.74498111       0.49783392 </v>
   </varray>
  </structure>
  <varray name="primitive_index" >
   <v type="int" >        1 </v>
   <v type="int" >        2 </v>
   <v type="int" >        3 </v>
   <v type="int" >        4 </v>
   <v type="int" >        5 </v>
   <v type="int" >        6 </v>
   <v type="int" >        7 </v>
   <v type="int" >        8 </v>
   <v type="int" >        9 </v>
   <v type="int" >       10 </v>
   <v type="int" >       11 </v>
   <v type="int" >       12 </v>
   <v type="int" >       13 </v>
   <v type="int" >       14 </v>
   <v type="int" >       15 </v>
   <v type="int" >       16 </v>
   <v type="int" >       17 </v>
   <v type="int" >       18 </v>
   <v type="int" >       19 </v>
   <v type="int" >       20 </v>
   <v type="int" >       21 </v>
   <v type="int" >       22 </v>
   <v type="int" >       23 </v>
   <v type="int" >       24 </v>
   <v type="int" >       25 </v>
   <v type="int" >       26 </v>
   <v type="int" >       27 </v>
   <v type="int" >       28 </v>
   <v type="int" >       29 </v>
   <v type="int" >       30 </v>
   <v type="int" >       31 </v>
   <v type="int" >       32 </v>
   <v type="int" >       33 </v>
   <v type="int" >       34 </v>
   <v type="int" >       35 </v>
   <v type="int" >       36 </v>
   <v type="int" >       37 </v>
   <v type="int" >       38 </v>
   <v type="int" >       39 </v>
   <v type="int" >       40 </v>
   <v type="int" >       41 </v>
   <v type="int" >       42 </v>
   <v type="int" >       43 </v>
   <v type="int" >       44 </v>
   <v type="int" >       45 </v>
   <v type="int" >       46 </v>
   <v type="int" >       47 </v>
   <v type="int" >       48 </v>
   <v type="int" >       49 </v>
   <v type="int" >       50 </v>
   <v type="int" >       51 </v>
   <v type="int" >       52 </v>
   <v type="int" >       53 </v>
   <v type="int" >       54 </v>
   <v type="int" >       55 </v>
   <v type="int" >       56 </v>
   <v type="int" >       57 </v>
   <v type="int" >       58 </v>
   <v type="int" >       59 </v>
   <v type="int" >       60 </v>
   <v type="int" >       61 </v>
   <v type="int" >       62 </v>
   <v type="int" >       63 </v>
   <v type="int" >       64 </v>
  </varray>
 </primitive_cell>
 <kpoints>
  <generation param="Monkhorst-Pack">
   <v type="int" name="divisions">       3        3        3 </v>
   <v name="usershift">      0.00000000       0.00000000       0.00000000 </v>
   <v name="genvec1">      0.33333333       0.00000000       0.00000000 </v>
   <v name="genvec2">      0.00000000       0.33333333       0.00000000 </v>
   <v name="genvec3">      0.00000000       0.00000000       0.33333333 </v>
   <v name="shift">      0.00000000       0.00000000       0.00000000 </v>
  </generation>
  <varray name="kpointlist" >
   <v>       0.00000000       0.00000000       0.00000000 </v>
   <v>       0.33333333       0.00000000       0.00000000 </v>
   <v>       0.00000000       0.33333333       0.00000000 </v>
   <v>       0.00000000       0.00000000       0.33333333 </v>
   <v>       0.33333333       0.33333333       0.00000000 </v>
   <v>       0.00000000       0.33333333       0.33333333 </v>
   <v>       0.33333333       0.00000000       0.33333333 </v>
   <v>      -0.33333333       0.33333333       0.00000000 </v>
   <v>      -0.33333333       0.00000000       0.33333333 </v>
   <v>       0.00000000      -0.33333333       0.33333333 </v>
   <v>       0.33333333       0.33333333       0.33333333 </v>
   <v>      -0.33333333       0.33333333       0.33333333 </v>
   <v>      -0.33333333      -0.33333333       0.33333333 </v>
   <v>       0.33333333      -0.33333333       0.33333333 </v>
  </varray>
  <varray name="weights" >
   <v>       0.03703704 </v>
   <v>       0.07407407 </v>
   <v>       0.07407407 </v>
   <v>       0.07407407 </v>
   <v>       0.07407407 </v>
   <v>       0.07407407 </v>
   <v>       0.07407407 </v>
   <v>       0.07407407 </v>
   <v>       0.07407407 </v>
   <v>       0.07407407 </v>
   <v>       0.07407407 </v>
   <v>       0.07407407 </v>
   <v>       0.07407407 </v>
   <v>       0.07407407 </v>
  </varray>
 </kpoints>
 <parameters>
  <separator name="general" >
   <i type="string" name="SYSTEM">unknown system</i>
   <i type="logical" name="LCOMPAT"> F  </i>
  </separator>
  <separator name="electronic" >
   <i type="string" name="PREC">normal</i>
   <i name="ENMAX">    400.00000000</i>
   <i name="ENAUG">    644.87300000</i>
   <i name="EDIFF">      0.00000001</i>
   <i type="int" name="IALGO">    38</i>
   <i type="int" name="IWAVPR">    10</i>
   <i type="int" name="NBANDS">   168</i>
   <i type="int" name="NBANDSLOW">    -1</i>
   <i type="int" name="NBANDSHIGH">    -1</i>
   <i name="NELECT">    256.00000000</i>
   <i type="int" name="TURBO">     0</i>
   <i type="int" name="IRESTART">     0</i>
   <i type="int" name="NREBOOT">     0</i>
   <i type="int" name="NMIN">     0</i>
   <i name="EREF">      0.00000000</i>
   <separator name="electronic smearing" >
    <i type="int" name="ISMEAR">     1</i>
    <i name="SIGMA">      0.20000000</i>
    <i name="KSPACING">      0.50000000</i>
    <i type="logical" name="KGAMMA"> T  </i>
    <i type="logical" name="KBLOWUP"> T  </i>
   </separator>
   <separator name="electronic projectors" >
    <i type="logical" name="LREAL"> F  </i>
    <v name="ROPT">      0.00000000      0.00000000</v>
    <i type="int" name="LMAXPAW">  -100</i>
    <i type="int" name="LMAXMIX">     2</i>
    <i type="logical" name="NLSPLINE"> F  </i>
   </separator>
   <separator name="electronic startup" >
    <i type="int" name="ISTART">     0</i>
    <i type="int" name="ICHARG">     2</i>
    <i type="int" name="INIWAV">     1</i>
   </separator>
   <separator name="electronic spin" >
    <i type="int" name="ISPIN">     1</i>
    <i type="logical" name="LNONCOLLINEAR"> F  </i>
    <v name="MAGMOM">      1.00000000      1.00000000      1.00000000      1.00000000      1.00000000      1.00000000      1.00000000      1.00000000      1.00000000      1.00000000      1.00000000      1.00000000      1.00000000      1.00000000      1.00000000      1.00000000      1.00000000      1.00000000      1.00000000      1.00000000
      1.00000000      1.00000000      1.00000000      1.00000000      1.00000000      1.00000000      1.00000000      1.00000000      1.00000000      1.00000000      1.00000000      1.00000000      1.00000000      1.00000000      1.00000000      1.00000000      1.00000000      1.00000000      1.00000000      1.00000000
      1.00000000      1.00000000      1.00000000      1.00000000      1.00000000      1.00000000      1.00000000      1.00000000      1.00000000      1.00000000      1.00000000      1.00000000      1.00000000      1.00000000      1.00000000      1.00000000      1.00000000      1.00000000      1.00000000      1.00000000
      1.00000000      1.00000000      1.00000000      1.00000000</v>
    <i name="NUPDOWN">     -1.00000000</i>
    <i type="logical" name="LSORBIT"> F  </i>
    <v name="SAXIS">      0.00000000      0.00000000      1.00000000</v>
    <i type="logical" name="LSPIRAL"> F  </i>
    <v name="QSPIRAL">      0.00000000      0.00000000      0.00000000</v>
    <i type="logical" name="LZEROZ"> F  </i>
   </separator>
   <separator name="electronic exchange-correlation" >
    <i type="logical" name="LASPH"> F  </i>
    <i type="logical" name="LMETAGGA"> F  </i>
   </separator>
   <separator name="electronic convergence" >
    <i type="int" name="NELM">    60</i>
    <i type="int" name="NELMDL">    -5</i>
    <i type="int" name="NELMIN">     2</i>
    <i name="ENINI">    400.00000000</i>
    <separator name="electronic convergence detail" >
     <i type="logical" name="LDIAG"> T  </i>
     <i type="logical" name="LSUBROT"> F  </i>
     <i name="WEIMIN">      0.00000000</i>
     <i name="EBREAK">      0.00000000</i>
     <i name="DEPER">      0.30000000</i>
     <i type="int" name="NRMM">     4</i>
     <i name="TIME">      0.40000000</i>
    </separator>
   </separator>
   <separator name="electronic mixer" >
    <i name="AMIX">      0.40000000</i>
    <i name="BMIX">      1.00000000</i>
    <i name="AMIN">      0.10000000</i>
    <i name="AMIX_MAG">      1.60000000</i>
    <i name="BMIX_MAG">      1.00000000</i>
    <separator name="electronic mixer details" >
     <i type="int" name="IMIX">     4</i>
     <i type="logical" name="MIXFIRST"> F  </i>
     <i type="int" name="MAXMIX">   -45</i>
     <i name="WC">    100.00000000</i>
     <i type="int" name="INIMIX">     1</i>
     <i type="int" name="MIXPRE">     1</i>
     <i type="int" name="MREMOVE">     5</i>
    </separator>
   </separator>
   <separator name="electronic dipolcorrection" >
    <i type="logical" name="LDIPOL"> F  </i>
    <i type="logical" name="LMONO"> F  </i>
    <i type="int" name="IDIPOL">     0</i>
    <i name="EPSILON">      1.00000000</i>
    <v name="DIPOL">   -100.00000000   -100.00000000   -100.00000000</v>
    <i name="EFIELD">      0.00000000</i>
   </separator>
  </separator>
  <separator name="grids" >
   <i type="int" name="NGX">    48</i>
   <i type="int" name="NGY">    48</i>
   <i type="int" name="NGZ">    48</i>
   <i type="int" name="NGXF">    96</i>
   <i type="int" name="NGYF">    96</i>
   <i type="int" name="NGZF">    96</i>
   <i type="logical" name="ADDGRID"> F  </i>
  </separator>
  <separator name="ionic" >
   <i type="int" name="NSW">     0</i>
   <i type="int" name="IBRION">    -1</i>
   <i type="int" name="MDALGO">     0</i>
   <i type="int" name="ISIF">     3</i>
   <i name="PSTRESS">      0.00000000</i>
   <i name="EDIFFG">      0.00000010</i>
   <i type="int" name="NFREE">     0</i>
   <i name="POTIM">      0.50000000</i>
   <i name="SMASS">     -3.00000000</i>
   <i name="SCALEE">      1.00000000</i>
  </separator>
  <separator name="ionic md" >
   <i name="TEBEG">      0.00010000</i>
   <i name="TEEND">      0.00010000</i>
   <i type="int" name="NBLOCK">     1</i>
   <i type="int" name="KBLOCK">     1</i>
   <i type="int" name="NPACO">   256</i>
   <i name="APACO">     16.00000000</i>
  </separator>
  <separator name="symmetry" >
   <i type="int" name="ISYM">     0</i>
   <i name="SYMPREC">      0.00001000</i>
  </separator>
  <separator name="dos" >
   <i type="int" name="LORBIT">     0</i>
   <v name="RWIGS">     -1.00000000     -1.00000000</v>
   <i type="int" name="NEDOS">   301</i>
   <i name="EMIN">     10.00000000</i>
   <i name="EMAX">    -10.00000000</i>
   <i name="EFERMI">      0.00000000</i>
  </separator>
  <separator name="writing" >
   <i type="int" name="NWRITE">     2</i>
   <i type="logical" name="LWAVE"> F  </i>
   <i type="logical" name="LDOWNSAMPLE"> F  </i>
   <i type="logical" name="LCHARG"> F  </i>
   <i type="logical" name="LPARD"> F  </i>
   <i type="logical" name="LVTOT"> F  </i>
   <i type="logical" name="LVHAR"> F  </i>
   <i type="logical" name="LELF"> F  </i>
   <i type="logical" name="LOPTICS"> F  </i>
   <v name="STM">      0.00000000      0.00000000      0.00000000      0.00000000      0.00000000      0.00000000      0.00000000</v>
  </separator>
  <separator name="performance" >
   <i type="int" name="NPAR">     8</i>
   <i type="int" name="NSIM">     4</i>
   <i type="int" name="NBLK">    -1</i>
   <i type="logical" name="LPLANE"> T  </i>
   <i type="logical" name="LSCALAPACK"> T  </i>
   <i type="logical" name="LSCAAWARE"> F  </i>
   <i type="logical" name="LSCALU"> F  </i>
   <i type="logical" name="LASYNC"> F  </i>
   <i type="logical" name="LORBITALREAL"> F  </i>
  </separator>
  <separator name="miscellaneous" >
   <i type="int" name="IDIOT">     3</i>
   <i type="int" name="PHON_NSTRUCT">    -1</i>
   <i type="logical" name="LMUSIC"> F  </i>
   <v name="POMASS">     12.01100000     28.08500000</v>
   <v name="DARWINR">      0.00000000      0.00000000</v>
   <v name="DARWINV">      1.00000000      1.00000000</v>
   <i type="logical" name="LCORR"> T  </i>
  </separator>
  <i type="logical" name="GGA_COMPAT"> T  </i>
  <i type="logical" name="LBERRY"> F  </i>
  <i type="int" name="ICORELEVEL">     0</i>
  <i type="logical" name="LDAU"> F  </i>
  <i type="int" name="I_CONSTRAINED_M">     0</i>
  <separator name="electronic exchange-correlation" >
   <i type="string" name="GGA">PE</i>
   <i type="int" name="VOSKOWN">     0</i>
   <i type="logical" name="LHFCALC"> F  </i>
   <i type="string" name="PRECFOCK"></i>
   <i type="logical" name="LSYMGRAD"> F  </i>
   <i type="logical" name="LHFONE"> F  </i>
   <i type="logical" name="LRHFCALC"> F  </i>
   <i type="logical" name="LTHOMAS"> F  </i>
   <i type="logical" name="LMODELHF"> F  </i>
   <i type="logical" name="LFOCKACE"> F  </i>
   <i name="ENCUT4O">     -1.00000000</i>
   <i type="int" name="EXXOEP">     0</i>
   <i type="int" name="FOURORBIT">     0</i>
   <i name="AEXX">      0.00000000</i>
   <i name="HFALPHA">      0.00000000</i>
   <i name="MCALPHA">      0.00000000</i>
   <i name="ALDAX">      1.00000000</i>
   <i name="AGGAX">      1.00000000</i>
   <i name="ALDAC">      1.00000000</i>
   <i name="AGGAC">      1.00000000</i>
   <i type="int" name="NKREDX">     1</i>
   <i type="int" name="NKREDY">     1</i>
   <i type="int" name="NKREDZ">     1</i>
   <i type="logical" name="SHIFTRED"> F  </i>
   <i type="logical" name="ODDONLY"> F  </i>
   <i type="logical" name="EVENONLY"> F  </i>
   <i type="int" name="LMAXFOCK">     0</i>
   <i type="int" name="NMAXFOCKAE">     0</i>
   <i type="logical" name="LFOCKAEDFT"> F  </i>
   <i name="HFSCREEN">      0.00000000</i>
   <i name="HFSCREENC">      0.00000000</i>
   <i type="int" name="NBANDSGWLOW">     0</i>
  </separator>
  <separator name="vdW DFT" >
   <i type="logical" name="LUSE_VDW"> F  </i>
   <i name="Zab_VDW">     -0.84910000</i>
   <i name="PARAM1">      0.12340000</i>
   <i name="PARAM2">      1.00000000</i>
   <i name="PARAM3">      0.00000000</i>
  </separator>
  <separator name="model GW" >
   <i type="int" name="MODEL_GW">     0</i>
   <i name="MODEL_EPS0">      6.26613487</i>
   <i name="MODEL_ALPHA">      1.00000000</i>
  </separator>
  <separator name="linear response parameters" >
   <i type="logical" name="LEPSILON"> F  </i>
   <i type="logical" name="LRPA"> F  </i>
   <i type="logical" name="LNABLA"> F  </i>
   <i type="logical" name="LVEL"> F  </i>
   <i type="int" name="KINTER">     0</i>
   <i name="CSHIFT">      0.10000000</i>
   <i name="OMEGAMAX">     -1.00000000</i>
   <i name="DEG_THRESHOLD">      0.00200000</i>
   <i name="RTIME">     -0.10000000</i>
   <i name="WPLASMAI">      0.00000000</i>
   <v name="DFIELD">      0.00000000      0.00000000      0.00000000</v>
   <v name="WPLASMA">      0.00000000      0.00000000      0.00000000      0.00000000      0.00000000      0.00000000      0.00000000      0.00000000      0.00000000</v>
  </separator>
  <separator name="orbital magnetization" >
   <i type="logical" name="NUCIND"> F  </i>
   <v name="MAGPOS">      0.00000000      0.00000000      0.00000000</v>
   <i type="logical" name="LNICSALL"> T  </i>
   <i type="logical" name="ORBITALMAG"> F  </i>
   <i type="logical" name="LMAGBLOCH"> F  </i>
   <i type="logical" name="LCHIMAG"> F  </i>
   <i type="logical" name="LGAUGE"> T  </i>
   <i type="int" name="MAGATOM">     0</i>
   <v name="MAGDIPOL">      0.00000000      0.00000000      0.00000000</v>
   <v name="AVECCONST">      0.00000000      0.00000000      0.00000000</v>
  </separator>
  <separator name="response functions" >
   <i type="logical" name="LFINITE_TEMPERATURE"> F  </i>
   <i type="logical" name="LADDER"> F  </i>
   <i type="logical" name="LRPAFORCE"> F  </i>
   <i type="logical" name="LFXC"> F  </i>
   <i type="logical" name="LHARTREE"> T  </i>
   <i type="int" name="IBSE">     0</i>
   <v type="int" name="KPOINT">    -1     0     0     0</v>
   <i type="logical" name="LTCTC"> F  </i>
   <i type="logical" name="LTCTE"> F  </i>
   <i type="logical" name="LTETE"> F  </i>
   <i type="logical" name="LTRIPLET"> F  </i>
   <i type="logical" name="LFXCEPS"> F  </i>
   <i type="logical" name="LFXHEG"> F  </i>
   <i type="int" name="NATURALO">     2</i>
   <i type="logical" name="LHOLEGF"> F  </i>
   <i type="logical" name="L2ORDER"> F  </i>
   <i type="logical" name="LDMP1"> F  </i>
   <i type="logical" name="LMP2LT"> F  </i>
   <i type="logical" name="LSMP2LT"> F  </i>
   <i type="logical" name="LGWLF"> F  </i>
   <i name="ENCUTGW">     -2.00000000</i>
   <i name="ENCUTGWSOFT">     -2.00000000</i>
   <i name="ENCUTLF">     -1.00000000</i>
   <i type="logical" name="LESF_SPLINES"> F  </i>
   <i type="int" name="LMAXMP2">    -1</i>
   <i name="SCISSOR">      0.00000000</i>
   <i type="int" name="NOMEGA">     0</i>
   <i type="int" name="NOMEGAR">     0</i>
   <i type="int" name="NBANDSGW">    -1</i>
   <i type="int" name="NBANDSO">    -1</i>
   <i type="int" name="NBANDSV">    -1</i>
   <i type="int" name="NELM">    60</i>
   <i type="int" name="NELMHF">     1</i>
   <i type="int" name="DIM">     3</i>
   <i type="int" name="IESPILON">     4</i>
   <i type="int" name="ANTIRES">     0</i>
   <i name="OMEGAMAX">    -30.00000000</i>
   <i name="OMEGAMIN">    -30.00000000</i>
   <i name="OMEGATL">   -200.00000000</i>
   <i type="int" name="OMEGAGRID">     0</i>
   <i name="CSHIFT">     -0.10000000</i>
   <i type="logical" name="LSELFENERGY"> F  </i>
   <i type="logical" name="LSPECTRAL"> F  </i>
   <i type="logical" name="LSPECTRALGW"> F  </i>
   <i type="logical" name="LSINGLES"> F  </i>
   <i type="logical" name="LFERMIGW"> F  </i>
   <i type="logical" name="ODDONLYGW"> F  </i>
   <i type="logical" name="EVENONLYGW"> F  </i>
   <i type="int" name="NKREDLFX">     1</i>
   <i type="int" name="NKREDLFY">     1</i>
   <i type="int" name="NKREDLFZ">     1</i>
   <i type="int" name="MAXMEM">  2800</i>
   <i type="int" name="TELESCOPE">     0</i>
   <i type="int" name="NTAUPAR">    -1</i>
   <i type="int" name="NOMEGAPAR">    -1</i>
   <i name="DAMP_NEWTON">      0.80000001</i>
   <i name="LAMBDA">      1.00000000</i>
  </separator>
  <separator name="External order field" >
   <i name="OFIELD_KAPPA">      0.00000000</i>
   <v name="OFIELD_K">      0.00000000      0.00000000      0.00000000</v>
   <i name="OFIELD_Q6_NEAR">      0.00000000</i>
   <i name="OFIELD_Q6_FAR">      0.00000000</i>
   <i name="OFIELD_A">      0.00000000</i>
  </separator>
 </parameters>
 <atominfo>
  <atoms>      64 </atoms>
  <types>       2 </types>
  <array name="atoms" >
   <dimension dim="1">ion</dimension>
   <field type="string">element</field>
   <field type="int">atomtype</field>
   <set>
    <rc><c>C </c><c>   1</c></rc>
    <rc><c>C </c><c>   1</c></rc>
    <rc><c>C </c><c>   1</c></rc>
    <rc><c>C </c><c>   1</c></rc>
    <rc><c>C </c><c>   1</c></rc>
    <rc><c>C </c><c>   1</c></rc>
    <rc><c>C </c><c>   1</c></rc>
    <rc><c>C </c><c>   1</c></rc>
    <rc><c>C </c><c>   1</c></rc>
    <rc><c>C </c><c>   1</c></rc>
    <rc><c>C </c><c>   1</c></rc>
    <rc><c>C </c><c>   1</c></rc>
    <rc><c>C </c><c>   1</c></rc>
    <rc><c>C </c><c>   1</c></rc>
    <rc><c>C </c><c>   1</c></rc>
    <rc><c>C </c><c>   1</c></rc>
    <rc><c>C </c><c>   1</c></rc>
    <rc><c>C </c><c>   1</c></rc>
    <rc><c>C </c><c>   1</c></rc>
    <rc><c>C </c><c>   1</c></rc>
    <rc><c>C </c><c>   1</c></rc>
    <rc><c>C </c><c>   1</c></rc>
    <rc><c>C </c><c>   1</c></rc>
    <rc><c>C </c><c>   1</c></rc>
    <rc><c>C </c><c>   1</c></rc>
    <rc><c>C </c><c>   1</c></rc>
    <rc><c>C </c><c>   1</c></rc>
    <rc><c>C </c><c>   1</c></rc>
    <rc><c>C </c><c>   1</c></rc>
    <rc><c>C </c><c>   1</c></rc>
    <rc><c>C </c><c>   1</c></rc>
    <rc><c>C </c><c>   1</c></rc>
    <rc><c>Si</c><c>   2</c></rc>
    <rc><c>Si</c><c>   2</c></rc>
    <rc><c>Si</c><c>   2</c></rc>
    <rc><c>Si</c><c>   2</c></rc>
    <rc><c>Si</c><c>   2</c></rc>
    <rc><c>Si</c><c>   2</c></rc>
    <rc><c>Si</c><c>   2</c></rc>
    <rc><c>Si</c><c>   2</c></rc>
    <rc><c>Si</c><c>   2</c></rc>
    <rc><c>Si</c><c>   2</c></rc>
    <rc><c>Si</c><c>   2</c></rc>
    <rc><c>Si</c><c>   2</c></rc>
    <rc><c>Si</c><c>   2</c></rc>
    <rc><c>Si</c><c>   2</c></rc>
    <rc><c>Si</c><c>   2</c></rc>
    <rc><c>Si</c><c>   2</c></rc>
    <rc><c>Si</c><c>   2</c></rc>
    <rc><c>Si</c><c>   2</c></rc>
    <rc><c>Si</c><c>   2</c></rc>
    <rc><c>Si</c><c>   2</c></rc>
    <rc><c>Si</c><c>   2</c></rc>
    <rc><c>Si</c><c>   2</c></rc>
    <rc><c>Si</c><c>   2</c></rc>
    <rc><c>Si</c><c>   2</c></rc>
    <rc><c>Si</c><c>   2</c></rc>
    <rc><c>Si</c><c>   2</c></rc>
    <rc><c>Si</c><c>   2</c></rc>
    <rc><c>Si</c><c>   2</c></rc>
    <rc><c>Si</c><c>   2</c></rc>
    <rc><c>Si</c><c>   2</c></rc>
    <rc><c>Si</c><c>   2</c></rc>
    <rc><c>Si</c><c>   2</c></rc>
   </set>
  </array>
  <array name="atomtypes" >
   <dimension dim="1">type</dimension>
   <field type="int">atomspertype</field>
   <field type="string">element</field>
   <field>mass</field>
   <field>valence</field>
   <field type="string">pseudopotential</field>
   <set>
    <rc><c>  32</c><c>C </c><c>     12.01100000</c><c>      4.00000000</c><c>  PAW_PBE C 08Apr2002                   </c></rc>
    <rc><c>  32</c><c>Si</c><c>     28.08500000</c><c>      4.00000000</c><c>  PAW_PBE Si 05Jan2001                  </c></rc>
   </set>
  </array>
 </atominfo>
 <structure name="initialpos" >
  <crystal>
   <varray name="basis" >
    <v>       8.74331558       0.00000000       0.00000000 </v>
    <v>       0.00000000       8.74331558       0.00000000 </v>
    <v>       0.00000000       0.00000000       8.74331558 </v>
   </varray>
   <i name="volume">    668.38771987 </i>
   <varray name="rec_basis" >
    <v>       0.11437309       0.00000000       0.00000000 </v>
    <v>       0.00000000       0.11437309       0.00000000 </v>
    <v>       0.00000000       0.00000000       0.11437309 </v>
   </varray>
  </crystal>
  <varray name="positions" >
   <v>       0.12581621       0.12480646       0.12205046 </v>
   <v>       0.12816583       0.37476936       0.37064648 </v>
   <v>       0.37288013       0.12640141       0.37197718 </v>
   <v>       0.37373154       0.37150034       0.12704419 </v>
   <v>       0.12618677       0.11991612       0.62655141 </v>
   <v>       0.12751552       0.37747746       0.87396159 </v>
   <v>       0.37532855       0.12329769       0.87904435 </v>
   <v>       0.37312433       0.37276250       0.62931103 </v>
   <v>       0.12190253       0.62822196       0.12365256 </v>
   <v>       0.12404771       0.87778598       0.37916485 </v>
   <v>       0.37465393       0.62773773       0.37780452 </v>
   <v>       0.37644280       0.86808509       0.12181940 </v>
   <v>       0.12556948       0.62400888       0.62743594 </v>
   <v>       0.12452106       0.87494201       0.87866375 </v>
   <v>       0.37737754       0.61787049       0.87644435 </v>
   <v>       0.37592462       0.86940599       0.62468330 </v>
   <v>       0.62608369       0.12571696       0.12768366 </v>
   <v>       0.62691035       0.37439531       0.37829654 </v>
   <v>       0.87877037       0.12453496       0.37577617 </v>
   <v>       0.87450586       0.37454813       0.12528585 </v>
   <v>       0.62613537       0.12762946       0.62524315 </v>
   <v>       0.62596531       0.37598110       0.87358491 </v>
   <v>       0.87608975       0.12034341       0.87715958 </v>
   <v>       0.87578796       0.37374398       0.62302863 </v>
   <v>       0.62589693       0.62691413       0.12334624 </v>
   <v>       0.62713467       0.87631331       0.37199239 </v>
   <v>       0.87717579       0.62252582       0.37617607 </v>
   <v>       0.87804945       0.87396017       0.12452352 </v>
   <v>       0.62109787       0.62053164       0.62602279 </v>
   <v>       0.62189286       0.87813959       0.87428822 </v>
   <v>       0.87588666       0.62397213       0.87778550 </v>
   <v>       0.87644102       0.87384808       0.62339812 </v>
   <v>       0.00401916       0.99826351       0.00244230 </v>
   <v>       0.99995073       0.24712323       0.24873466 </v>
   <v>       0.25069707       0.99571591       0.25368677 </v>
   <v>       0.24831496       0.25257032       0.00251058 </v>
   <v>       0.99851133       0.99723094       0.50057801 </v>
   <v>       0.00058610       0.24862508       0.74862287 </v>
   <v>       0.24654751       0.99750716       0.74820019 </v>
   <v>       0.25056460       0.25189925       0.50041921 </v>
   <v>       0.00006429       0.49720988       0.99829431 </v>
   <v>       0.99735524       0.74776996       0.25017509 </v>
   <v>       0.24647652       0.49769613       0.24897149 </v>
   <v>       0.25096957       0.75197883       0.00148629 </v>
   <v>       0.00200092       0.49654256       0.49920463 </v>
   <v>       0.00335545       0.74567744       0.75065054 </v>
   <v>       0.24880136       0.49938356       0.74951980 </v>
   <v>       0.24852363       0.74781195       0.50260281 </v>
   <v>       0.50185828       0.00434102       0.99844088 </v>
   <v>       0.49621118       0.25480608       0.25203177 </v>
   <v>       0.74521587       0.00186357       0.25080835 </v>
   <v>       0.75260288       0.24495653       0.99776782 </v>
   <v>       0.49515059       0.99642894       0.49969802 </v>
   <v>       0.49586919       0.25029457       0.74734512 </v>
   <v>       0.75095948       0.00230785       0.75685128 </v>
   <v>       0.74721681       0.25347126       0.49911474 </v>
   <v>       0.49675276       0.49692621       0.99868281 </v>
   <v>       0.50354574       0.75389518       0.24576462 </v>
   <v>       0.74894598       0.50107616       0.25321475 </v>
   <v>       0.75274194       0.75202610       0.00029344 </v>
   <v>       0.50493336       0.50175517       0.50249577 </v>
   <v>       0.49745498       0.74901405       0.74489318 </v>
   <v>       0.75166746       0.50101169       0.74498433 </v>
   <v>       0.75000958       0.74498111       0.49783392 </v>
  </varray>
 </structure>
 <calculation>
  <scstep>
   <time name="dav">    5.02    5.02</time>
   <time name="total">    5.05    5.05</time>
   <energy>
    <i name="alphaZ">    354.85177120 </i>
    <i name="ewald">  -9079.33547100 </i>
    <i name="hartreedc">   -672.73972116 </i>
    <i name="XCdc">    145.87361218 </i>
    <i name="pawpsdc">   6292.66707184 </i>
    <i name="pawaedc">  -5747.90303932 </i>
    <i name="eentropy">      0.00071905 </i>
    <i name="bandstr">   1369.91441987 </i>
    <i name="atom">   8006.17504320 </i>
    <i name="e_fr_energy">    669.50440585 </i>
    <i name="e_wo_entrp">    669.50368680 </i>
    <i name="e_0_energy">    669.50416617 </i>
   </energy>
  </scstep>
  <scstep>
   <time name="dav">    5.67    5.68</time>
   <time name="total">    5.68    5.68</time>
   <energy>
    <i name="e_fr_energy">   -462.52679748 </i>
    <i name="e_wo_entrp">   -462.54456079 </i>
    <i name="e_0_energy">   -462.53271859 </i>
   </energy>
  </scstep>
  <scstep>
   <time name="dav">    5.56    5.56</time>
   <time name="total">    5.56    5.56</time>
   <energy>
    <i name="e_fr_energy">   -537.52094346 </i>
    <i name="e_wo_entrp">   -537.54195990 </i>
    <i name="e_0_energy">   -537.52794894 </i>
   </energy>
  </scstep>
  <scstep>
   <time name="dav">    5.54    5.54</time>
   <time name="total">    5.55    5.55</time>
   <energy>
    <i name="e_fr_energy">   -539.17298328 </i>
    <i name="e_wo_entrp">   -539.19470737 </i>
    <i name="e_0_energy">   -539.18022464 </i>
   </energy>
  </scstep>
  <scstep>
   <time name="dav">    5.46    5.46</time>
   <time name="total">    5.58    5.58</time>
   <energy>
    <i name="e_fr_energy">   -539.21861689 </i>
    <i name="e_wo_entrp">   -539.24024560 </i>
    <i name="e_0_energy">   -539.22582646 </i>
   </energy>
  </scstep>
  <scstep>
   <time name="dav">    5.29    5.29</time>
   <time name="total">    5.44    5.44</time>
   <energy>
    <i name="e_fr_energy">   -482.42595011 </i>
    <i name="e_wo_entrp">   -482.43699590 </i>
    <i name="e_0_energy">   -482.42963204 </i>
   </energy>
  </scstep>
  <scstep>
   <time name="dav">    5.69    5.69</time>
   <time name="total">    5.88    5.89</time>
   <energy>
    <i name="e_fr_energy">   -481.06241583 </i>
    <i name="e_wo_entrp">   -481.07230538 </i>
    <i name="e_0_energy">   -481.06571235 </i>
   </energy>
  </scstep>
  <scstep>
   <time name="dav">    5.33    5.33</time>
   <time name="total">    5.49    5.49</time>
   <energy>
    <i name="e_fr_energy">   -480.83436207 </i>
    <i name="e_wo_entrp">   -480.84446619 </i>
    <i name="e_0_energy">   -480.83773011 </i>
   </energy>
  </scstep>
  <scstep>
   <time name="dav">    5.37    5.38</time>
   <time name="total">    5.55    5.55</time>
   <energy>
    <i name="e_fr_energy">   -480.81788280 </i>
    <i name="e_wo_entrp">   -480.82788084 </i>
    <i name="e_0_energy">   -480.82121548 </i>
   </energy>
  </scstep>
  <scstep>
   <time name="dav">    5.51    5.51</time>
   <time name="total">    5.68    5.68</time>
   <energy>
    <i name="e_fr_energy">   -480.82098193 </i>
    <i name="e_wo_entrp">   -480.83097044 </i>
    <i name="e_0_energy">   -480.82431143 </i>
   </energy>
  </scstep>
  <scstep>
   <time name="dav">    5.17    5.17</time>
   <time name="total">    5.37    5.38</time>
   <energy>
    <i name="e_fr_energy">   -480.82195554 </i>
    <i name="e_wo_entrp">   -480.83194451 </i>
    <i name="e_0_energy">   -480.82528520 </i>
   </energy>
  </scstep>
  <scstep>
   <time name="dav">    5.73    5.73</time>
   <time name="total">    5.91    5.91</time>
   <energy>
    <i name="e_fr_energy">   -480.82197458 </i>
    <i name="e_wo_entrp">   -480.83196295 </i>
    <i name="e_0_energy">   -480.82530403 </i>
   </energy>
  </scstep>
  <scstep>
   <time name="dav">    5.14    5.14</time>
   <time name="total">    5.32    5.32</time>
   <energy>
    <i name="e_fr_energy">   -480.82198644 </i>
    <i name="e_wo_entrp">   -480.83197641 </i>
    <i name="e_0_energy">   -480.82531643 </i>
   </energy>
  </scstep>
  <scstep>
   <time name="dav">    5.36    5.36</time>
   <time name="total">    5.53    5.53</time>
   <energy>
    <i name="e_fr_energy">   -480.82199266 </i>
    <i name="e_wo_entrp">   -480.83198250 </i>
    <i name="e_0_energy">   -480.82532260 </i>
   </energy>
  </scstep>
  <scstep>
   <time name="dav">    5.53    5.53</time>
   <time name="total">    5.71    5.71</time>
   <energy>
    <i name="e_fr_energy">   -480.82199440 </i>
    <i name="e_wo_entrp">   -480.83198391 </i>
    <i name="e_0_energy">   -480.82532424 </i>
   </energy>
  </scstep>
  <scstep>
   <time name="dav">    5.66    5.66</time>
   <time name="total">    5.84    5.84</time>
   <energy>
    <i name="e_fr_energy">   -480.82199413 </i>
    <i name="e_wo_entrp">   -480.83198378 </i>
    <i name="e_0_energy">   -480.82532402 </i>
   </energy>
  </scstep>
  <scstep>
   <time name="dav">    5.11    5.11</time>
   <time name="total">    5.28    5.28</time>
   <energy>
    <i name="e_fr_energy">   -480.82199432 </i>
    <i name="e_wo_entrp">   -480.83198396 </i>
    <i name="e_0_energy">   -480.82532420 </i>
   </energy>
  </scstep>
  <scstep>
   <time name="dav">    3.41    3.41</time>
   <time name="total">    3.44    3.45</time>
   <energy>
    <i name="alphaZ">    354.85177120 </i>
    <i name="ewald">  -9079.33547100 </i>
    <i name="hartreedc">  -1025.82854637 </i>
    <i name="XCdc">    179.33694930 </i>
    <i name="pawpsdc">  33101.77804748 </i>
    <i name="pawaedc"> -32562.73431752 </i>
    <i name="eentropy">      0.00998962 </i>
    <i name="bandstr">    544.92453977 </i>
    <i name="atom">   8006.17504320 </i>
    <i name="e_fr_energy">   -480.82199432 </i>
    <i name="e_wo_entrp">   -480.83198394 </i>
    <i name="e_0_energy">   -480.82532420 </i>
   </energy>
  </scstep>
  <structure>
   <crystal>
    <varray name="basis" >
     <v>       8.74331558       0.00000000       0.00000000 </v>
     <v>       0.00000000       8.74331558       0.00000000 </v>
     <v>       0.00000000       0.00000000       8.74331558 </v>
    </varray>
    <i name="volume">    668.38771987 </i>
    <varray name="rec_basis" >
     <v>       0.11437309       0.00000000       0.00000000 </v>
     <v>       0.00000000       0.11437309       0.00000000 </v>
     <v>       0.00000000       0.00000000       0.11437309 </v>
    </varray>
   </crystal>
   <varray name="positions" >
    <v>       0.12581621       0.12480646       0.12205046 </v>
    <v>       0.12816583       0.37476936       0.37064648 </v>
    <v>       0.37288013       0.12640141       0.37197718 </v>
    <v>       0.37373154       0.37150034       0.12704419 </v>
    <v>       0.12618677       0.11991612       0.62655141 </v>
    <v>       0.12751552       0.37747746       0.87396159 </v>
    <v>       0.37532855       0.12329769       0.87904435 </v>
    <v>       0.37312433       0.37276250       0.62931103 </v>
    <v>       0.12190253       0.62822196       0.12365256 </v>
    <v>       0.12404771       0.87778598       0.37916485 </v>
    <v>       0.37465393       0.62773773       0.37780452 </v>
    <v>       0.37644280       0.86808509       0.12181940 </v>
    <v>       0.12556948       0.62400888       0.62743594 </v>
    <v>       0.12452106       0.87494201       0.87866375 </v>
    <v>       0.37737754       0.61787049       0.87644435 </v>
    <v>       0.37592462       0.86940599       0.62468330 </v>
    <v>       0.62608369       0.12571696       0.12768366 </v>
    <v>       0.62691035       0.37439531       0.37829654 </v>
    <v>       0.87877037       0.12453496       0.37577617 </v>
    <v>       0.87450586       0.37454813       0.12528585 </v>
    <v>       0.62613537       0.12762946       0.62524315 </v>
    <v>       0.62596531       0.37598110       0.87358491 </v>
    <v>       0.87608975       0.12034341       0.87715958 </v>
    <v>       0.87578796       0.37374398       0.62302863 </v>
    <v>       0.62589693       0.62691413       0.12334624 </v>
    <v>       0.62713467       0.87631331       0.37199239 </v>
    <v>       0.87717579       0.62252582       0.37617607 </v>
    <v>       0.87804945       0.87396017       0.12452352 </v>
    <v>       0.62109787       0.62053164       0.62602279 </v>
    <v>       0.62189286       0.87813959       0.87428822 </v>
    <v>       0.87588666       0.62397213       0.87778550 </v>
    <v>       0.87644102       0.87384808       0.62339812 </v>
    <v>       0.00401916       0.99826351       0.00244230 </v>
    <v>       0.99995073       0.24712323       0.24873466 </v>
    <v>       0.25069707       0.99571591       0.25368677 </v>
    <v>       0.24831496       0.25257032       0.00251058 </v>
    <v>       0.99851133       0.99723094       0.50057801 </v>
    <v>       0.00058610       0.24862508       0.74862287 </v>
    <v>       0.24654751       0.99750716       0.74820019 </v>
    <v>       0.25056460       0.25189925       0.50041921 </v>
    <v>       0.00006429       0.49720988       0.99829431 </v>
    <v>       0.99735524       0.74776996       0.25017509 </v>
    <v>       0.24647652       0.49769613       0.24897149 </v>
    <v>       0.25096957       0.75197883       0.00148629 </v>
    <v>       0.00200092       0.49654256       0.49920463 </v>
    <v>       0.00335545       0.74567744       0.75065054 </v>
    <v>       0.24880136       0.49938356       0.74951980 </v>
    <v>       0.24852363       0.74781195       0.50260281 </v>
    <v>       0.50185828       0.00434102       0.99844088 </v>
    <v>       0.49621118       0.25480608       0.25203177 </v>
    <v>       0.74521587       0.00186357       0.25080835 </v>
    <v>       0.75260288       0.24495653       0.99776782 </v>
    <v>       0.49515059       0.99642894       0.49969802 </v>
    <v>       0.49586919       0.25029457       0.74734512 </v>
    <v>       0.75095948       0.00230785       0.75685128 </v>
    <v>       0.74721681       0.25347126       0.49911474 </v>
    <v>       0.49675276       0.49692621       0.99868281 </v>
    <v>       0.50354574       0.75389518       0.24576462 </v>
    <v>       0.74894598       0.50107616       0.25321475 </v>
    <v>       0.75274194       0.75202610       0.00029344 </v>
    <v>       0.50493336       0.50175517       0.50249577 </v>
    <v>       0.49745498       0.74901405       0.74489318 </v>
    <v>       0.75166746       0.50101169       0.74498433 </v>
    <v>       0.75000958       0.74498111       0.49783392 </v>
   </varray>
  </structure>
  <varray name="forces" >
   <v>       0.12736177      -0.22879902       0.81616261 </v>
   <v>      -0.76556102      -0.42094685       0.89980271 </v>
   <v>       0.26955058      -0.35378236       0.77858574 </v>
   <v>      -0.07648882       0.98594898      -0.26728650 </v>
   <v>      -0.35780582       0.95848503      -0.58584005 </v>
   <v>      -0.65994153      -0.71115998       0.10539006 </v>
   <v>      -0.61592789       0.54566378      -0.93704252 </v>
   <v>       0.02479303       0.64480229      -1.18698541 </v>
   <v>       0.44659053      -0.81095581       0.17416847 </v>
   <v>       0.08202316      -1.11633313      -0.51621839 </v>
   <v>       0.34791356      -0.61417473      -0.64853832 </v>
   <v>       0.07679296       1.79375993       0.59922426 </v>
   <v>      -0.02131537      -0.39809920      -0.51690523 </v>
   <v>       0.37696933      -0.39626424      -0.86156214 </v>
   <v>      -0.87029771       1.42697420      -0.62635438 </v>
   <v>      -0.80328495       0.85483709      -0.06128181 </v>
   <v>      -0.56656705       0.42453708      -0.30595083 </v>
   <v>      -0.75711153       0.63085920      -0.65131941 </v>
   <v>      -0.93525006       0.16956035       0.01659827 </v>
   <v>       0.04235880      -0.23219822       0.01380965 </v>
   <v>      -0.49387143      -0.61116805      -0.09401960 </v>
   <v>       0.01753469      -0.56441030      -0.10345404 </v>
   <v>       0.67896210       0.66538168      -0.05986722 </v>
   <v>       0.15665925       0.10939874       0.10693381 </v>
   <v>      -0.05411595      -0.55982545       0.26228584 </v>
   <v>      -0.55510342      -0.44852947       0.74473055 </v>
   <v>      -0.24492451      -0.08056756       0.03556970 </v>
   <v>      -0.67799917       0.45408887       0.45884335 </v>
   <v>       1.20573048       1.13899118      -0.19920648 </v>
   <v>       0.49956461      -0.72610274      -0.07111394 </v>
   <v>      -0.15707366       0.01912959      -0.93856431 </v>
   <v>      -0.55303751      -0.44477607       0.73355368 </v>
   <v>      -0.51155708       0.07573561      -0.11818246 </v>
   <v>       0.01779733       0.22474208      -0.05475327 </v>
   <v>      -0.09733540       0.37014867      -1.10264607 </v>
   <v>       0.34153493      -0.81076641      -0.66363476 </v>
   <v>      -0.02166408       0.50089961       0.11756445 </v>
   <v>       0.09228406      -0.19290493       0.40731647 </v>
   <v>       0.97622907      -0.03174313       1.02665914 </v>
   <v>      -0.19249875      -0.56804652      -0.01647275 </v>
   <v>      -0.19272260       0.46993526       0.49289016 </v>
   <v>       0.56992315       0.58150405       0.18976437 </v>
   <v>       0.85878664       1.27940079      -0.06341924 </v>
   <v>      -0.10210225      -1.04690842      -0.55291504 </v>
   <v>       0.15296009       0.24924411      -0.01981532 </v>
   <v>      -0.83758491       0.80398557       0.34967000 </v>
   <v>       0.53928937       0.04965435       0.28585044 </v>
   <v>       0.02148815       0.13065252      -0.59643822 </v>
   <v>      -0.43945832      -0.79380231       0.63795723 </v>
   <v>       0.92898270      -0.95339766      -0.09553135 </v>
   <v>       1.59875802      -0.06999915      -0.09012053 </v>
   <v>      -0.53636642       1.11434536       0.44956835 </v>
   <v>       1.11662995       0.78931236      -0.05576725 </v>
   <v>       0.86973460      -0.40635942       1.04435259 </v>
   <v>      -0.31605074      -0.68931595      -1.70211764 </v>
   <v>       0.92261370      -1.33081263       0.24438994 </v>
   <v>       1.19622482       0.04652753       0.47861264 </v>
   <v>      -0.50814618      -1.01310644       0.64369813 </v>
   <v>       0.19159895      -0.23231907      -1.01352771 </v>
   <v>      -0.52156199      -0.20486305      -0.31813440 </v>
   <v>      -1.77319539      -0.69536264      -0.58242605 </v>
   <v>       0.57372897      -0.36760116       1.67166204 </v>
   <v>      -0.09755650      -0.31318986       1.38308570 </v>
   <v>      -0.00789134       0.93008607       0.50871226 </v>
  </varray>
  <varray name="stress" >
   <v>       5.56554065      -3.11815852       3.03586489 </v>
   <v>      -3.11815852       4.45541780      -4.93124425 </v>
   <v>       3.03586489      -4.93124421       5.22768768 </v>
  </varray>
  <energy>
   <i name="e_fr_energy">   -480.82199432 </i>
   <i name="e_wo_entrp">   -480.83198394 </i>
   <i name="e_0_energy">   -480.82532420 </i>
  </energy>
  <time name="totalsc">  105.85  105.88</time>
  <eigenvalues>
   <array>
    <dimension dim="1">band</dimension>
    <dimension dim="2">kpoint</dimension>
    <dimension dim="3">spin</dimension>
    <field>eigene</field>
    <field>occ</field>
    <set>
     <set comment="spin 1">
      <set comment="kpoint 1">
       <r>   -7.3501    1.0000 </r>
       <r>   -5.8699    1.0000 </r>
       <r>   -5.8128    1.0000 </r>
       <r>   -5.7948    1.0000 </r>
       <r>   -5.7649    1.0000 </r>
       <r>   -5.7099    1.0000 </r>
       <r>   -5.6756    1.0000 </r>
       <r>   -4.5336    1.0000 </r>
       <r>   -4.4639    1.0000 </r>
       <r>   -4.4260    1.0000 </r>
       <r>   -4.3997    1.0000 </r>
       <r>   -4.3751    1.0000 </r>
       <r>   -4.3568    1.0000 </r>
       <r>   -4.3431    1.0000 </r>
       <r>   -4.3376    1.0000 </r>
       <r>   -4.2836    1.0000 </r>
       <r>   -4.2500    1.0000 </r>
       <r>   -4.2107    1.0000 </r>
       <r>   -4.1883    1.0000 </r>
       <r>   -3.8157    1.0000 </r>
       <r>   -3.8138    1.0000 </r>
       <r>   -3.7927    1.0000 </r>
       <r>   -3.7450    1.0000 </r>
       <r>   -2.4167    1.0000 </r>
       <r>   -2.4023    1.0000 </r>
       <r>   -2.3167    1.0000 </r>
       <r>   -2.1972    1.0000 </r>
       <r>   -2.1780    1.0000 </r>
       <r>   -2.1625    1.0000 </r>
       <r>   -2.0988    1.0000 </r>
       <r>   -2.0548    1.0000 </r>
       <r>   -2.0135    1.0000 </r>
       <r>   -0.5556    1.0000 </r>
       <r>   -0.5034    1.0000 </r>
       <r>   -0.4716    1.0000 </r>
       <r>   -0.4564    1.0000 </r>
       <r>    0.2188    1.0000 </r>
       <r>    0.2310    1.0000 </r>
       <r>    0.2543    1.0000 </r>
       <r>    0.9280    1.0000 </r>
       <r>    0.9671    1.0000 </r>
       <r>    0.9713    1.0000 </r>
       <r>    0.9771    1.0000 </r>
       <r>    1.0105    1.0000 </r>
       <r>    1.0219    1.0000 </r>
       <r>    1.9441    1.0000 </r>
       <r>    1.9638    1.0000 </r>
       <r>    1.9910    1.0000 </r>
       <r>    2.0253    1.0000 </r>
       <r>    2.0306    1.0000 </r>
       <r>    2.0512    1.0000 </r>
       <r>    2.0790    1.0000 </r>
       <r>    2.1069    1.0000 </r>
       <r>    2.1264    1.0000 </r>
       <r>    2.1485    1.0000 </r>
       <r>    2.1746    1.0000 </r>
       <r>    2.2107    1.0000 </r>
       <r>    2.9485    1.0000 </r>
       <r>    3.0209    1.0000 </r>
       <r>    3.0299    1.0000 </r>
       <r>    3.0456    1.0000 </r>
       <r>    3.0734    1.0000 </r>
       <r>    3.1040    1.0000 </r>
       <r>    3.2794    1.0000 </r>
       <r>    3.3086    1.0000 </r>
       <r>    3.3136    1.0000 </r>
       <r>    3.3540    1.0000 </r>
       <r>    3.3634    1.0000 </r>
       <r>    3.4001    1.0000 </r>
       <r>    3.6076    1.0000 </r>
       <r>    3.6269    1.0000 </r>
       <r>    3.6485    1.0000 </r>
       <r>    3.6557    1.0000 </r>
       <r>    3.6676    1.0000 </r>
       <r>    3.6801    1.0000 </r>
       <r>    3.6894    1.0000 </r>
       <r>    3.7291    1.0000 </r>
       <r>    3.7447    1.0000 </r>
       <r>    3.7510    1.0000 </r>
       <r>    3.7648    1.0000 </r>
       <r>    3.7978    1.0000 </r>
       <r>    4.5727    1.0000 </r>
       <r>    4.5951    1.0000 </r>
       <r>    4.6340    1.0000 </r>
       <r>    4.6532    1.0000 </r>
       <r>    4.6654    1.0000 </r>
       <r>    4.7114    1.0000 </r>
       <r>    4.8065    1.0000 </r>
       <r>    4.8236    1.0000 </r>
       <r>    4.8325    1.0000 </r>
       <r>    4.8496    1.0000 </r>
       <r>    4.8739    1.0000 </r>
       <r>    4.9115    1.0000 </r>
       <r>    5.9666    1.0000 </r>
       <r>    5.9862    1.0000 </r>
       <r>    5.9968    1.0000 </r>
       <r>    6.0207    1.0000 </r>
       <r>    6.0283    1.0000 </r>
       <r>    6.0520    1.0000 </r>
       <r>    6.0736    1.0000 </r>
       <r>    6.0954    1.0000 </r>
       <r>    6.1000    1.0000 </r>
       <r>    6.1212    1.0000 </r>
       <r>    6.1779    1.0000 </r>
       <r>    6.1891    1.0000 </r>
       <r>    6.6749    1.0000 </r>
       <r>    6.7230    1.0000 </r>
       <r>    6.7323    1.0000 </r>
       <r>    6.7579    1.0000 </r>
       <r>    6.7914    1.0000 </r>
       <r>    6.8057    1.0000 </r>
       <r>    6.8250    1.0000 </r>
       <r>    6.8271    1.0000 </r>
       <r>    6.8601    1.0000 </r>
       <r>    6.8806    1.0000 </r>
       <r>    6.8883    1.0000 </r>
       <r>    6.9264    1.0000 </r>
       <r>    6.9422    1.0000 </r>
       <r>    6.9642    1.0000 </r>
       <r>    6.9740    1.0000 </r>
       <r>    6.9959    1.0000 </r>
       <r>    7.0184    1.0000 </r>
       <r>    7.0454    1.0000 </r>
       <r>    7.0685    1.0000 </r>
       <r>    7.0771    1.0000 </r>
       <r>    7.9826    1.0127 </r>
       <r>    8.0387    0.9319 </r>
       <r>    8.0723    0.8470 </r>
       <r>    9.3080   -0.0000 </r>
       <r>    9.3801   -0.0000 </r>
       <r>    9.3901   -0.0000 </r>
       <r>   11.9262   -0.0000 </r>
       <r>   11.9327   -0.0000 </r>
       <r>   11.9891   -0.0000 </r>
       <r>   12.0386   -0.0000 </r>
       <r>   12.0425   -0.0000 </r>
       <r>   12.0951   -0.0000 </r>
       <r>   12.2417   -0.0000 </r>
       <r>   12.2705   -0.0000 </r>
       <r>   12.2943   -0.0000 </r>
       <r>   13.0735   -0.0000 </r>
       <r>   13.0787   -0.0000 </r>
       <r>   13.1356   -0.0000 </r>
       <r>   13.1602   -0.0000 </r>
       <r>   13.1996   -0.0000 </r>
       <r>   13.2230   -0.0000 </r>
       <r>   13.2977   -0.0000 </r>
       <r>   13.3109   -0.0000 </r>
       <r>   13.3252   -0.0000 </r>
       <r>   13.3529   -0.0000 </r>
       <r>   13.3972   -0.0000 </r>
       <r>   13.4100   -0.0000 </r>
       <r>   13.4360   -0.0000 </r>
       <r>   13.4482   -0.0000 </r>
       <r>   13.4634   -0.0000 </r>
       <r>   13.4958   -0.0000 </r>
       <r>   13.5194   -0.0000 </r>
       <r>   13.5283   -0.0000 </r>
       <r>   13.5353   -0.0000 </r>
       <r>   13.5513   -0.0000 </r>
       <r>   13.5946   -0.0000 </r>
       <r>   13.6421    0.0000 </r>
       <r>   14.1012    0.0000 </r>
       <r>   14.1848    0.0000 </r>
       <r>   14.2392    0.0000 </r>
       <r>   14.2842    0.0000 </r>
       <r>   14.3029    0.0000 </r>
       <r>   14.3508    0.0000 </r>
      </set>
      <set comment="kpoint 2">
       <r>   -7.1718    1.0000 </r>
       <r>   -6.6382    1.0000 </r>
       <r>   -5.7008    1.0000 </r>
       <r>   -5.6470    1.0000 </r>
       <r>   -5.5848    1.0000 </r>
       <r>   -5.5288    1.0000 </r>
       <r>   -5.1971    1.0000 </r>
       <r>   -5.1204    1.0000 </r>
       <r>   -5.0765    1.0000 </r>
       <r>   -5.0050    1.0000 </r>
       <r>   -4.6315    1.0000 </r>
       <r>   -4.3194    1.0000 </r>
       <r>   -4.2763    1.0000 </r>
       <r>   -4.2226    1.0000 </r>
       <r>   -4.1801    1.0000 </r>
       <r>   -4.0096    1.0000 </r>
       <r>   -3.9812    1.0000 </r>
       <r>   -3.9497    1.0000 </r>
       <r>   -3.8885    1.0000 </r>
       <r>   -3.4752    1.0000 </r>
       <r>   -3.4261    1.0000 </r>
       <r>   -3.3843    1.0000 </r>
       <r>   -3.3187    1.0000 </r>
       <r>   -3.2020    1.0000 </r>
       <r>   -2.5891    1.0000 </r>
       <r>   -2.5559    1.0000 </r>
       <r>   -2.4802    1.0000 </r>
       <r>   -2.4312    1.0000 </r>
       <r>   -2.3223    1.0000 </r>
       <r>   -2.2796    1.0000 </r>
       <r>   -2.1690    1.0000 </r>
       <r>   -2.1536    1.0000 </r>
       <r>   -0.1033    1.0000 </r>
       <r>   -0.0672    1.0000 </r>
       <r>   -0.0023    1.0000 </r>
       <r>    0.0230    1.0000 </r>
       <r>    0.3684    1.0000 </r>
       <r>    0.3880    1.0000 </r>
       <r>    0.6943    1.0000 </r>
       <r>    0.7252    1.0000 </r>
       <r>    0.9758    1.0000 </r>
       <r>    0.9938    1.0000 </r>
       <r>    1.0170    1.0000 </r>
       <r>    1.0604    1.0000 </r>
       <r>    1.0901    1.0000 </r>
       <r>    1.0995    1.0000 </r>
       <r>    1.1610    1.0000 </r>
       <r>    1.1830    1.0000 </r>
       <r>    1.2372    1.0000 </r>
       <r>    1.3701    1.0000 </r>
       <r>    1.3958    1.0000 </r>
       <r>    1.4406    1.0000 </r>
       <r>    1.4625    1.0000 </r>
       <r>    2.6427    1.0000 </r>
       <r>    2.6739    1.0000 </r>
       <r>    2.7090    1.0000 </r>
       <r>    2.7258    1.0000 </r>
       <r>    2.8904    1.0000 </r>
       <r>    2.9285    1.0000 </r>
       <r>    2.9478    1.0000 </r>
       <r>    2.9662    1.0000 </r>
       <r>    2.9852    1.0000 </r>
       <r>    3.0100    1.0000 </r>
       <r>    3.0376    1.0000 </r>
       <r>    3.0649    1.0000 </r>
       <r>    3.0926    1.0000 </r>
       <r>    3.4972    1.0000 </r>
       <r>    3.5215    1.0000 </r>
       <r>    3.6436    1.0000 </r>
       <r>    3.6649    1.0000 </r>
       <r>    3.9622    1.0000 </r>
       <r>    4.0038    1.0000 </r>
       <r>    4.0479    1.0000 </r>
       <r>    4.0730    1.0000 </r>
       <r>    4.3050    1.0000 </r>
       <r>    4.3429    1.0000 </r>
       <r>    4.3524    1.0000 </r>
       <r>    4.3786    1.0000 </r>
       <r>    4.4155    1.0000 </r>
       <r>    4.4292    1.0000 </r>
       <r>    4.4542    1.0000 </r>
       <r>    4.4928    1.0000 </r>
       <r>    4.6232    1.0000 </r>
       <r>    4.6498    1.0000 </r>
       <r>    4.6885    1.0000 </r>
       <r>    4.7025    1.0000 </r>
       <r>    4.7667    1.0000 </r>
       <r>    4.7987    1.0000 </r>
       <r>    4.8600    1.0000 </r>
       <r>    4.8810    1.0000 </r>
       <r>    4.9667    1.0000 </r>
       <r>    4.9982    1.0000 </r>
       <r>    5.3765    1.0000 </r>
       <r>    5.4266    1.0000 </r>
       <r>    5.5611    1.0000 </r>
       <r>    5.5782    1.0000 </r>
       <r>    5.6212    1.0000 </r>
       <r>    5.6608    1.0000 </r>
       <r>    5.8395    1.0000 </r>
       <r>    5.8739    1.0000 </r>
       <r>    5.9191    1.0000 </r>
       <r>    5.9593    1.0000 </r>
       <r>    6.1673    1.0000 </r>
       <r>    6.2361    1.0000 </r>
       <r>    6.2609    1.0000 </r>
       <r>    6.3086    1.0000 </r>
       <r>    6.3481    1.0000 </r>
       <r>    6.4308    1.0000 </r>
       <r>    6.4411    1.0000 </r>
       <r>    6.5067    1.0000 </r>
       <r>    6.5301    1.0000 </r>
       <r>    6.7260    1.0000 </r>
       <r>    6.7735    1.0000 </r>
       <r>    6.8155    1.0000 </r>
       <r>    6.8455    1.0000 </r>
       <r>    6.8664    1.0000 </r>
       <r>    6.8855    1.0000 </r>
       <r>    6.9058    1.0000 </r>
       <r>    6.9158    1.0000 </r>
       <r>    6.9388    1.0000 </r>
       <r>    6.9818    1.0000 </r>
       <r>    6.9898    1.0000 </r>
       <r>    7.0191    1.0000 </r>
       <r>    7.0351    1.0000 </r>
       <r>    7.0826    1.0000 </r>
       <r>    7.4811    1.0000 </r>
       <r>    7.6675    1.0012 </r>
       <r>    7.7300    1.0044 </r>
       <r>    9.6744   -0.0000 </r>
       <r>   10.1772   -0.0000 </r>
       <r>   10.2201   -0.0000 </r>
       <r>   10.6235   -0.0000 </r>
       <r>   11.9411   -0.0000 </r>
       <r>   11.9727   -0.0000 </r>
       <r>   12.4687   -0.0000 </r>
       <r>   12.5642   -0.0000 </r>
       <r>   12.6132   -0.0000 </r>
       <r>   12.6545   -0.0000 </r>
       <r>   12.7188   -0.0000 </r>
       <r>   12.9234   -0.0000 </r>
       <r>   12.9360   -0.0000 </r>
       <r>   12.9700   -0.0000 </r>
       <r>   13.0072   -0.0000 </r>
       <r>   13.0304   -0.0000 </r>
       <r>   13.0481   -0.0000 </r>
       <r>   13.0666   -0.0000 </r>
       <r>   13.0843   -0.0000 </r>
       <r>   13.1174   -0.0000 </r>
       <r>   13.1409   -0.0000 </r>
       <r>   13.1884   -0.0000 </r>
       <r>   13.4540   -0.0000 </r>
       <r>   13.5908   -0.0000 </r>
       <r>   13.6082   -0.0000 </r>
       <r>   13.6287    0.0000 </r>
       <r>   13.6527    0.0000 </r>
       <r>   13.6797    0.0000 </r>
       <r>   13.6953    0.0000 </r>
       <r>   13.7306    0.0000 </r>
       <r>   13.7486    0.0000 </r>
       <r>   13.9041    0.0000 </r>
       <r>   13.9351    0.0000 </r>
       <r>   13.9978    0.0000 </r>
       <r>   14.0461    0.0000 </r>
       <r>   14.4684    0.0000 </r>
       <r>   14.7788    0.0000 </r>
       <r>   14.8331    0.0000 </r>
       <r>   14.8386    0.0000 </r>
       <r>   14.8896    0.0000 </r>
      </set>
      <set comment="kpoint 3">
       <r>   -7.1722    1.0000 </r>
       <r>   -6.6390    1.0000 </r>
       <r>   -5.6726    1.0000 </r>
       <r>   -5.6346    1.0000 </r>
       <r>   -5.5972    1.0000 </r>
       <r>   -5.5557    1.0000 </r>
       <r>   -5.1675    1.0000 </r>
       <r>   -5.1296    1.0000 </r>
       <r>   -5.0782    1.0000 </r>
       <r>   -5.0520    1.0000 </r>
       <r>   -4.6112    1.0000 </r>
       <r>   -4.2855    1.0000 </r>
       <r>   -4.2599    1.0000 </r>
       <r>   -4.2236    1.0000 </r>
       <r>   -4.1753    1.0000 </r>
       <r>   -4.0136    1.0000 </r>
       <r>   -3.9920    1.0000 </r>
       <r>   -3.9634    1.0000 </r>
       <r>   -3.9311    1.0000 </r>
       <r>   -3.4411    1.0000 </r>
       <r>   -3.4279    1.0000 </r>
       <r>   -3.3861    1.0000 </r>
       <r>   -3.3290    1.0000 </r>
       <r>   -3.1952    1.0000 </r>
       <r>   -2.5671    1.0000 </r>
       <r>   -2.5515    1.0000 </r>
       <r>   -2.5078    1.0000 </r>
       <r>   -2.4664    1.0000 </r>
       <r>   -2.2929    1.0000 </r>
       <r>   -2.2547    1.0000 </r>
       <r>   -2.1947    1.0000 </r>
       <r>   -2.1464    1.0000 </r>
       <r>   -0.0951    1.0000 </r>
       <r>   -0.0455    1.0000 </r>
       <r>   -0.0110    1.0000 </r>
       <r>    0.0102    1.0000 </r>
       <r>    0.3649    1.0000 </r>
       <r>    0.3809    1.0000 </r>
       <r>    0.7071    1.0000 </r>
       <r>    0.7182    1.0000 </r>
       <r>    0.9527    1.0000 </r>
       <r>    1.0025    1.0000 </r>
       <r>    1.0169    1.0000 </r>
       <r>    1.0618    1.0000 </r>
       <r>    1.1022    1.0000 </r>
       <r>    1.1193    1.0000 </r>
       <r>    1.1280    1.0000 </r>
       <r>    1.1501    1.0000 </r>
       <r>    1.2474    1.0000 </r>
       <r>    1.3598    1.0000 </r>
       <r>    1.4050    1.0000 </r>
       <r>    1.4466    1.0000 </r>
       <r>    1.4892    1.0000 </r>
       <r>    2.6404    1.0000 </r>
       <r>    2.6784    1.0000 </r>
       <r>    2.7114    1.0000 </r>
       <r>    2.7255    1.0000 </r>
       <r>    2.8910    1.0000 </r>
       <r>    2.9403    1.0000 </r>
       <r>    2.9503    1.0000 </r>
       <r>    2.9688    1.0000 </r>
       <r>    2.9818    1.0000 </r>
       <r>    3.0012    1.0000 </r>
       <r>    3.0316    1.0000 </r>
       <r>    3.0681    1.0000 </r>
       <r>    3.0784    1.0000 </r>
       <r>    3.5102    1.0000 </r>
       <r>    3.5275    1.0000 </r>
       <r>    3.6439    1.0000 </r>
       <r>    3.6503    1.0000 </r>
       <r>    3.9604    1.0000 </r>
       <r>    4.0138    1.0000 </r>
       <r>    4.0366    1.0000 </r>
       <r>    4.0742    1.0000 </r>
       <r>    4.2939    1.0000 </r>
       <r>    4.3443    1.0000 </r>
       <r>    4.3670    1.0000 </r>
       <r>    4.3938    1.0000 </r>
       <r>    4.4179    1.0000 </r>
       <r>    4.4382    1.0000 </r>
       <r>    4.4572    1.0000 </r>
       <r>    4.4795    1.0000 </r>
       <r>    4.6143    1.0000 </r>
       <r>    4.6531    1.0000 </r>
       <r>    4.6728    1.0000 </r>
       <r>    4.6961    1.0000 </r>
       <r>    4.7869    1.0000 </r>
       <r>    4.8072    1.0000 </r>
       <r>    4.8553    1.0000 </r>
       <r>    4.8582    1.0000 </r>
       <r>    4.9730    1.0000 </r>
       <r>    4.9977    1.0000 </r>
       <r>    5.3950    1.0000 </r>
       <r>    5.4109    1.0000 </r>
       <r>    5.5531    1.0000 </r>
       <r>    5.6065    1.0000 </r>
       <r>    5.6115    1.0000 </r>
       <r>    5.6547    1.0000 </r>
       <r>    5.8362    1.0000 </r>
       <r>    5.8757    1.0000 </r>
       <r>    5.9243    1.0000 </r>
       <r>    5.9520    1.0000 </r>
       <r>    6.1797    1.0000 </r>
       <r>    6.2316    1.0000 </r>
       <r>    6.2632    1.0000 </r>
       <r>    6.2900    1.0000 </r>
       <r>    6.3185    1.0000 </r>
       <r>    6.4257    1.0000 </r>
       <r>    6.4582    1.0000 </r>
       <r>    6.4969    1.0000 </r>
       <r>    6.5451    1.0000 </r>
       <r>    6.7474    1.0000 </r>
       <r>    6.8054    1.0000 </r>
       <r>    6.8193    1.0000 </r>
       <r>    6.8461    1.0000 </r>
       <r>    6.8682    1.0000 </r>
       <r>    6.8885    1.0000 </r>
       <r>    6.9024    1.0000 </r>
       <r>    6.9220    1.0000 </r>
       <r>    6.9530    1.0000 </r>
       <r>    6.9679    1.0000 </r>
       <r>    6.9888    1.0000 </r>
       <r>    7.0091    1.0000 </r>
       <r>    7.0374    1.0000 </r>
       <r>    7.0504    1.0000 </r>
       <r>    7.4848    1.0000 </r>
       <r>    7.6881    1.0019 </r>
       <r>    7.7000    1.0025 </r>
       <r>    9.6780   -0.0000 </r>
       <r>   10.1717   -0.0000 </r>
       <r>   10.2299   -0.0000 </r>
       <r>   10.6180   -0.0000 </r>
       <r>   11.9327   -0.0000 </r>
       <r>   11.9801   -0.0000 </r>
       <r>   12.4791   -0.0000 </r>
       <r>   12.5891   -0.0000 </r>
       <r>   12.6054   -0.0000 </r>
       <r>   12.6515   -0.0000 </r>
       <r>   12.6845   -0.0000 </r>
       <r>   12.9131   -0.0000 </r>
       <r>   12.9483   -0.0000 </r>
       <r>   12.9609   -0.0000 </r>
       <r>   12.9868   -0.0000 </r>
       <r>   13.0266   -0.0000 </r>
       <r>   13.0446   -0.0000 </r>
       <r>   13.0560   -0.0000 </r>
       <r>   13.0958   -0.0000 </r>
       <r>   13.1356   -0.0000 </r>
       <r>   13.1710   -0.0000 </r>
       <r>   13.1932   -0.0000 </r>
       <r>   13.4809   -0.0000 </r>
       <r>   13.5842   -0.0000 </r>
       <r>   13.6134   -0.0000 </r>
       <r>   13.6412    0.0000 </r>
       <r>   13.6612    0.0000 </r>
       <r>   13.6759    0.0000 </r>
       <r>   13.6889    0.0000 </r>
       <r>   13.7021    0.0000 </r>
       <r>   13.7288    0.0000 </r>
       <r>   13.9223    0.0000 </r>
       <r>   13.9580    0.0000 </r>
       <r>   13.9879    0.0000 </r>
       <r>   14.0325    0.0000 </r>
       <r>   14.4764    0.0000 </r>
       <r>   14.7533    0.0000 </r>
       <r>   14.8065    0.0000 </r>
       <r>   14.8408    0.0000 </r>
       <r>   14.8947    0.0000 </r>
      </set>
      <set comment="kpoint 4">
       <r>   -7.1729    1.0000 </r>
       <r>   -6.6374    1.0000 </r>
       <r>   -5.6535    1.0000 </r>
       <r>   -5.6337    1.0000 </r>
       <r>   -5.6082    1.0000 </r>
       <r>   -5.5719    1.0000 </r>
       <r>   -5.1424    1.0000 </r>
       <r>   -5.1198    1.0000 </r>
       <r>   -5.0973    1.0000 </r>
       <r>   -5.0605    1.0000 </r>
       <r>   -4.6170    1.0000 </r>
       <r>   -4.2998    1.0000 </r>
       <r>   -4.2548    1.0000 </r>
       <r>   -4.2463    1.0000 </r>
       <r>   -4.1661    1.0000 </r>
       <r>   -4.0100    1.0000 </r>
       <r>   -3.9765    1.0000 </r>
       <r>   -3.9437    1.0000 </r>
       <r>   -3.9270    1.0000 </r>
       <r>   -3.4300    1.0000 </r>
       <r>   -3.4132    1.0000 </r>
       <r>   -3.3970    1.0000 </r>
       <r>   -3.3439    1.0000 </r>
       <r>   -3.2148    1.0000 </r>
       <r>   -2.5466    1.0000 </r>
       <r>   -2.5395    1.0000 </r>
       <r>   -2.5261    1.0000 </r>
       <r>   -2.4705    1.0000 </r>
       <r>   -2.3089    1.0000 </r>
       <r>   -2.2840    1.0000 </r>
       <r>   -2.1677    1.0000 </r>
       <r>   -2.1327    1.0000 </r>
       <r>   -0.1033    1.0000 </r>
       <r>   -0.0491    1.0000 </r>
       <r>   -0.0118    1.0000 </r>
       <r>    0.0092    1.0000 </r>
       <r>    0.3574    1.0000 </r>
       <r>    0.3990    1.0000 </r>
       <r>    0.6965    1.0000 </r>
       <r>    0.7070    1.0000 </r>
       <r>    0.9771    1.0000 </r>
       <r>    1.0267    1.0000 </r>
       <r>    1.0376    1.0000 </r>
       <r>    1.0558    1.0000 </r>
       <r>    1.0786    1.0000 </r>
       <r>    1.0993    1.0000 </r>
       <r>    1.1307    1.0000 </r>
       <r>    1.1690    1.0000 </r>
       <r>    1.2556    1.0000 </r>
       <r>    1.3913    1.0000 </r>
       <r>    1.4048    1.0000 </r>
       <r>    1.4348    1.0000 </r>
       <r>    1.4499    1.0000 </r>
       <r>    2.6397    1.0000 </r>
       <r>    2.6721    1.0000 </r>
       <r>    2.7001    1.0000 </r>
       <r>    2.7123    1.0000 </r>
       <r>    2.9233    1.0000 </r>
       <r>    2.9434    1.0000 </r>
       <r>    2.9568    1.0000 </r>
       <r>    2.9730    1.0000 </r>
       <r>    2.9831    1.0000 </r>
       <r>    3.0139    1.0000 </r>
       <r>    3.0280    1.0000 </r>
       <r>    3.0461    1.0000 </r>
       <r>    3.0577    1.0000 </r>
       <r>    3.5035    1.0000 </r>
       <r>    3.5349    1.0000 </r>
       <r>    3.6351    1.0000 </r>
       <r>    3.6540    1.0000 </r>
       <r>    3.9881    1.0000 </r>
       <r>    4.0113    1.0000 </r>
       <r>    4.0365    1.0000 </r>
       <r>    4.0539    1.0000 </r>
       <r>    4.3258    1.0000 </r>
       <r>    4.3450    1.0000 </r>
       <r>    4.3749    1.0000 </r>
       <r>    4.3912    1.0000 </r>
       <r>    4.4002    1.0000 </r>
       <r>    4.4417    1.0000 </r>
       <r>    4.4589    1.0000 </r>
       <r>    4.4698    1.0000 </r>
       <r>    4.6078    1.0000 </r>
       <r>    4.6474    1.0000 </r>
       <r>    4.6831    1.0000 </r>
       <r>    4.6921    1.0000 </r>
       <r>    4.7856    1.0000 </r>
       <r>    4.8002    1.0000 </r>
       <r>    4.8453    1.0000 </r>
       <r>    4.8753    1.0000 </r>
       <r>    4.9722    1.0000 </r>
       <r>    5.0043    1.0000 </r>
       <r>    5.3855    1.0000 </r>
       <r>    5.4164    1.0000 </r>
       <r>    5.5650    1.0000 </r>
       <r>    5.5931    1.0000 </r>
       <r>    5.6174    1.0000 </r>
       <r>    5.6533    1.0000 </r>
       <r>    5.8734    1.0000 </r>
       <r>    5.8842    1.0000 </r>
       <r>    5.9033    1.0000 </r>
       <r>    5.9292    1.0000 </r>
       <r>    6.1756    1.0000 </r>
       <r>    6.2243    1.0000 </r>
       <r>    6.2601    1.0000 </r>
       <r>    6.2808    1.0000 </r>
       <r>    6.3388    1.0000 </r>
       <r>    6.4483    1.0000 </r>
       <r>    6.4770    1.0000 </r>
       <r>    6.5024    1.0000 </r>
       <r>    6.5476    1.0000 </r>
       <r>    6.6979    1.0000 </r>
       <r>    6.7788    1.0000 </r>
       <r>    6.8093    1.0000 </r>
       <r>    6.8389    1.0000 </r>
       <r>    6.8717    1.0000 </r>
       <r>    6.8881    1.0000 </r>
       <r>    6.9080    1.0000 </r>
       <r>    6.9349    1.0000 </r>
       <r>    6.9457    1.0000 </r>
       <r>    6.9602    1.0000 </r>
       <r>    7.0010    1.0000 </r>
       <r>    7.0087    1.0000 </r>
       <r>    7.0282    1.0000 </r>
       <r>    7.0758    1.0000 </r>
       <r>    7.4814    1.0000 </r>
       <r>    7.6788    1.0016 </r>
       <r>    7.7222    1.0038 </r>
       <r>    9.6734   -0.0000 </r>
       <r>   10.1845   -0.0000 </r>
       <r>   10.2169   -0.0000 </r>
       <r>   10.6195   -0.0000 </r>
       <r>   11.9531   -0.0000 </r>
       <r>   11.9776   -0.0000 </r>
       <r>   12.4712   -0.0000 </r>
       <r>   12.5780   -0.0000 </r>
       <r>   12.6050   -0.0000 </r>
       <r>   12.6359   -0.0000 </r>
       <r>   12.6976   -0.0000 </r>
       <r>   12.9045   -0.0000 </r>
       <r>   12.9401   -0.0000 </r>
       <r>   12.9605   -0.0000 </r>
       <r>   13.0037   -0.0000 </r>
       <r>   13.0245   -0.0000 </r>
       <r>   13.0490   -0.0000 </r>
       <r>   13.0803   -0.0000 </r>
       <r>   13.1095   -0.0000 </r>
       <r>   13.1119   -0.0000 </r>
       <r>   13.1443   -0.0000 </r>
       <r>   13.1958   -0.0000 </r>
       <r>   13.4731   -0.0000 </r>
       <r>   13.5894   -0.0000 </r>
       <r>   13.6059   -0.0000 </r>
       <r>   13.6352    0.0000 </r>
       <r>   13.6577    0.0000 </r>
       <r>   13.6769    0.0000 </r>
       <r>   13.6977    0.0000 </r>
       <r>   13.7088    0.0000 </r>
       <r>   13.7340    0.0000 </r>
       <r>   13.9318    0.0000 </r>
       <r>   13.9488    0.0000 </r>
       <r>   13.9960    0.0000 </r>
       <r>   14.0384    0.0000 </r>
       <r>   14.4772    0.0000 </r>
       <r>   14.7535    0.0000 </r>
       <r>   14.8247    0.0000 </r>
       <r>   14.8610    0.0000 </r>
       <r>   14.9126    0.0000 </r>
      </set>
      <set comment="kpoint 5">
       <r>   -6.9957    1.0000 </r>
       <r>   -6.4775    1.0000 </r>
       <r>   -6.4545    1.0000 </r>
       <r>   -5.9629    1.0000 </r>
       <r>   -5.4546    1.0000 </r>
       <r>   -5.4231    1.0000 </r>
       <r>   -5.0105    1.0000 </r>
       <r>   -4.9902    1.0000 </r>
       <r>   -4.9505    1.0000 </r>
       <r>   -4.9452    1.0000 </r>
       <r>   -4.5779    1.0000 </r>
       <r>   -4.5407    1.0000 </r>
       <r>   -4.4420    1.0000 </r>
       <r>   -4.4094    1.0000 </r>
       <r>   -4.0604    1.0000 </r>
       <r>   -3.9931    1.0000 </r>
       <r>   -3.5762    1.0000 </r>
       <r>   -3.5216    1.0000 </r>
       <r>   -3.4256    1.0000 </r>
       <r>   -3.4104    1.0000 </r>
       <r>   -3.3961    1.0000 </r>
       <r>   -3.3328    1.0000 </r>
       <r>   -3.1202    1.0000 </r>
       <r>   -3.0844    1.0000 </r>
       <r>   -2.8709    1.0000 </r>
       <r>   -2.8386    1.0000 </r>
       <r>   -2.7645    1.0000 </r>
       <r>   -2.7210    1.0000 </r>
       <r>   -2.6286    1.0000 </r>
       <r>   -2.3222    1.0000 </r>
       <r>   -2.2977    1.0000 </r>
       <r>   -2.2435    1.0000 </r>
       <r>   -0.2194    1.0000 </r>
       <r>   -0.1575    1.0000 </r>
       <r>    0.4513    1.0000 </r>
       <r>    0.5145    1.0000 </r>
       <r>    0.5333    1.0000 </r>
       <r>    0.5560    1.0000 </r>
       <r>    0.5913    1.0000 </r>
       <r>    0.6156    1.0000 </r>
       <r>    0.6660    1.0000 </r>
       <r>    0.7710    1.0000 </r>
       <r>    0.7985    1.0000 </r>
       <r>    0.8320    1.0000 </r>
       <r>    0.8756    1.0000 </r>
       <r>    1.0076    1.0000 </r>
       <r>    1.2020    1.0000 </r>
       <r>    1.2252    1.0000 </r>
       <r>    1.2712    1.0000 </r>
       <r>    1.2965    1.0000 </r>
       <r>    1.9760    1.0000 </r>
       <r>    2.0050    1.0000 </r>
       <r>    2.0166    1.0000 </r>
       <r>    2.0667    1.0000 </r>
       <r>    2.0918    1.0000 </r>
       <r>    2.1262    1.0000 </r>
       <r>    2.4089    1.0000 </r>
       <r>    2.5640    1.0000 </r>
       <r>    2.5820    1.0000 </r>
       <r>    2.6974    1.0000 </r>
       <r>    2.7127    1.0000 </r>
       <r>    3.1982    1.0000 </r>
       <r>    3.2442    1.0000 </r>
       <r>    3.2984    1.0000 </r>
       <r>    3.3141    1.0000 </r>
       <r>    3.3451    1.0000 </r>
       <r>    3.5085    1.0000 </r>
       <r>    3.5273    1.0000 </r>
       <r>    3.8946    1.0000 </r>
       <r>    3.9197    1.0000 </r>
       <r>    4.0094    1.0000 </r>
       <r>    4.0184    1.0000 </r>
       <r>    4.0310    1.0000 </r>
       <r>    4.0719    1.0000 </r>
       <r>    4.1438    1.0000 </r>
       <r>    4.2878    1.0000 </r>
       <r>    4.3078    1.0000 </r>
       <r>    4.4697    1.0000 </r>
       <r>    4.4833    1.0000 </r>
       <r>    4.6409    1.0000 </r>
       <r>    4.6871    1.0000 </r>
       <r>    4.8416    1.0000 </r>
       <r>    4.8837    1.0000 </r>
       <r>    4.9007    1.0000 </r>
       <r>    4.9352    1.0000 </r>
       <r>    4.9395    1.0000 </r>
       <r>    4.9732    1.0000 </r>
       <r>    5.0626    1.0000 </r>
       <r>    5.2631    1.0000 </r>
       <r>    5.2962    1.0000 </r>
       <r>    5.3699    1.0000 </r>
       <r>    5.4018    1.0000 </r>
       <r>    5.4443    1.0000 </r>
       <r>    5.4722    1.0000 </r>
       <r>    5.5449    1.0000 </r>
       <r>    5.5636    1.0000 </r>
       <r>    5.5939    1.0000 </r>
       <r>    5.6143    1.0000 </r>
       <r>    5.6292    1.0000 </r>
       <r>    5.6631    1.0000 </r>
       <r>    5.7221    1.0000 </r>
       <r>    5.8044    1.0000 </r>
       <r>    5.9991    1.0000 </r>
       <r>    6.0157    1.0000 </r>
       <r>    6.0385    1.0000 </r>
       <r>    6.0591    1.0000 </r>
       <r>    6.1908    1.0000 </r>
       <r>    6.2323    1.0000 </r>
       <r>    6.2641    1.0000 </r>
       <r>    6.2945    1.0000 </r>
       <r>    6.3778    1.0000 </r>
       <r>    6.4216    1.0000 </r>
       <r>    6.4883    1.0000 </r>
       <r>    6.5193    1.0000 </r>
       <r>    6.5670    1.0000 </r>
       <r>    6.6550    1.0000 </r>
       <r>    6.6955    1.0000 </r>
       <r>    6.7109    1.0000 </r>
       <r>    6.7393    1.0000 </r>
       <r>    6.8631    1.0000 </r>
       <r>    6.8721    1.0000 </r>
       <r>    6.9035    1.0000 </r>
       <r>    6.9305    1.0000 </r>
       <r>    7.3270    1.0000 </r>
       <r>    7.5064    1.0000 </r>
       <r>    7.5492    1.0001 </r>
       <r>    7.6281    1.0005 </r>
       <r>    7.9554    1.0291 </r>
       <r>   10.3998   -0.0000 </r>
       <r>   10.4717   -0.0000 </r>
       <r>   10.5070   -0.0000 </r>
       <r>   11.3121   -0.0000 </r>
       <r>   11.3515   -0.0000 </r>
       <r>   11.6497   -0.0000 </r>
       <r>   11.6657   -0.0000 </r>
       <r>   11.7823   -0.0000 </r>
       <r>   12.1655   -0.0000 </r>
       <r>   12.2002   -0.0000 </r>
       <r>   12.7960   -0.0000 </r>
       <r>   12.8315   -0.0000 </r>
       <r>   12.8510   -0.0000 </r>
       <r>   12.8886   -0.0000 </r>
       <r>   13.0603   -0.0000 </r>
       <r>   13.0884   -0.0000 </r>
       <r>   13.1273   -0.0000 </r>
       <r>   13.1481   -0.0000 </r>
       <r>   13.1724   -0.0000 </r>
       <r>   13.2017   -0.0000 </r>
       <r>   13.2480   -0.0000 </r>
       <r>   13.3076   -0.0000 </r>
       <r>   13.5323   -0.0000 </r>
       <r>   13.5676   -0.0000 </r>
       <r>   13.5812   -0.0000 </r>
       <r>   13.6043   -0.0000 </r>
       <r>   13.7294    0.0000 </r>
       <r>   13.7412    0.0000 </r>
       <r>   13.7580    0.0000 </r>
       <r>   13.8022    0.0000 </r>
       <r>   13.8766    0.0000 </r>
       <r>   13.9072    0.0000 </r>
       <r>   13.9889    0.0000 </r>
       <r>   14.0695    0.0000 </r>
       <r>   14.1149    0.0000 </r>
       <r>   14.6240    0.0000 </r>
       <r>   14.7533    0.0000 </r>
       <r>   14.7617    0.0000 </r>
       <r>   14.9081    0.0000 </r>
       <r>   14.9722    0.0000 </r>
      </set>
      <set comment="kpoint 6">
       <r>   -6.9974    1.0000 </r>
       <r>   -6.5107    1.0000 </r>
       <r>   -6.4126    1.0000 </r>
       <r>   -5.9623    1.0000 </r>
       <r>   -5.4678    1.0000 </r>
       <r>   -5.4083    1.0000 </r>
       <r>   -5.0742    1.0000 </r>
       <r>   -5.0073    1.0000 </r>
       <r>   -4.9444    1.0000 </r>
       <r>   -4.8858    1.0000 </r>
       <r>   -4.5746    1.0000 </r>
       <r>   -4.5531    1.0000 </r>
       <r>   -4.4681    1.0000 </r>
       <r>   -4.3623    1.0000 </r>
       <r>   -4.0591    1.0000 </r>
       <r>   -3.9777    1.0000 </r>
       <r>   -3.5845    1.0000 </r>
       <r>   -3.5534    1.0000 </r>
       <r>   -3.4475    1.0000 </r>
       <r>   -3.4030    1.0000 </r>
       <r>   -3.3693    1.0000 </r>
       <r>   -3.3144    1.0000 </r>
       <r>   -3.1618    1.0000 </r>
       <r>   -3.0618    1.0000 </r>
       <r>   -2.8852    1.0000 </r>
       <r>   -2.8054    1.0000 </r>
       <r>   -2.7699    1.0000 </r>
       <r>   -2.7017    1.0000 </r>
       <r>   -2.6583    1.0000 </r>
       <r>   -2.3629    1.0000 </r>
       <r>   -2.2670    1.0000 </r>
       <r>   -2.2274    1.0000 </r>
       <r>   -0.2146    1.0000 </r>
       <r>   -0.1746    1.0000 </r>
       <r>    0.4300    1.0000 </r>
       <r>    0.4678    1.0000 </r>
       <r>    0.5419    1.0000 </r>
       <r>    0.5903    1.0000 </r>
       <r>    0.6082    1.0000 </r>
       <r>    0.6419    1.0000 </r>
       <r>    0.6577    1.0000 </r>
       <r>    0.7663    1.0000 </r>
       <r>    0.8229    1.0000 </r>
       <r>    0.8388    1.0000 </r>
       <r>    0.8952    1.0000 </r>
       <r>    1.0016    1.0000 </r>
       <r>    1.1642    1.0000 </r>
       <r>    1.2158    1.0000 </r>
       <r>    1.2665    1.0000 </r>
       <r>    1.3227    1.0000 </r>
       <r>    1.9420    1.0000 </r>
       <r>    1.9957    1.0000 </r>
       <r>    2.0327    1.0000 </r>
       <r>    2.0602    1.0000 </r>
       <r>    2.0997    1.0000 </r>
       <r>    2.1308    1.0000 </r>
       <r>    2.4040    1.0000 </r>
       <r>    2.5469    1.0000 </r>
       <r>    2.5733    1.0000 </r>
       <r>    2.6642    1.0000 </r>
       <r>    2.7671    1.0000 </r>
       <r>    3.2101    1.0000 </r>
       <r>    3.2397    1.0000 </r>
       <r>    3.2987    1.0000 </r>
       <r>    3.3174    1.0000 </r>
       <r>    3.3693    1.0000 </r>
       <r>    3.4702    1.0000 </r>
       <r>    3.5646    1.0000 </r>
       <r>    3.8846    1.0000 </r>
       <r>    3.9387    1.0000 </r>
       <r>    3.9770    1.0000 </r>
       <r>    4.0280    1.0000 </r>
       <r>    4.0484    1.0000 </r>
       <r>    4.0694    1.0000 </r>
       <r>    4.1309    1.0000 </r>
       <r>    4.2702    1.0000 </r>
       <r>    4.2975    1.0000 </r>
[...]
      </set>
     </set>
    </set>
   </array>
  </eigenvalues>
  <separator name="orbital magnetization" >
   <v name="MAGDIPOLOUT">      0.00000000      0.00000000      0.00000000</v>
  </separator>
  <dos>
   <i name="efermi">      8.16417128 </i>
   <total>
    <array>
     <dimension dim="1">gridpoints</dimension>
     <dimension dim="2">spin</dimension>
     <field>energy</field>
     <field>total</field>
     <field>integrated</field>
     <set>
      <set comment="spin 1">
       <r>    -9.3501     0.0000     0.0000 </r>
       <r>    -9.2607     0.0000     0.0000 </r>
       <r>    -9.1712     0.0000     0.0000 </r>
       <r>    -9.0818     0.0000     0.0000 </r>
       <r>    -8.9923    -0.0000    -0.0000 </r>
       <r>    -8.9029    -0.0000    -0.0000 </r>
       <r>    -8.8135    -0.0000    -0.0000 </r>
       <r>    -8.7240    -0.0000    -0.0000 </r>
       <r>    -8.6346    -0.0000    -0.0000 </r>
       <r>    -8.5451    -0.0000    -0.0000 </r>
       <r>    -8.4557    -0.0000    -0.0000 </r>
       <r>    -8.3662    -0.0000    -0.0000 </r>
       <r>    -8.2768    -0.0000    -0.0000 </r>
       <r>    -8.1874    -0.0000    -0.0000 </r>
       <r>    -8.0979    -0.0000    -0.0000 </r>
       <r>    -8.0085    -0.0000    -0.0000 </r>
       <r>    -7.9190    -0.0002    -0.0000 </r>
       <r>    -7.8296    -0.0014    -0.0001 </r>
       <r>    -7.7402    -0.0073    -0.0008 </r>
       <r>    -7.6507    -0.0233    -0.0029 </r>
       <r>    -7.5613    -0.0424    -0.0067 </r>
       <r>    -7.4718    -0.0200    -0.0085 </r>
       <r>    -7.3824     0.1496     0.0049 </r>
       <r>    -7.2929     0.6448     0.0626 </r>
       <r>    -7.2035     1.5868     0.2045 </r>
       <r>    -7.1141     2.8625     0.4606 </r>
       <r>    -7.0246     4.0853     0.8260 </r>
       <r>    -6.9352     4.5920     1.2367 </r>
       <r>    -6.8457     4.0557     1.5994 </r>
       <r>    -6.7563     3.0605     1.8732 </r>
       <r>    -6.6669     2.7543     2.1195 </r>
       <r>    -6.5774     4.2656     2.5010 </r>
       <r>    -6.4880     7.4222     3.1649 </r>
       <r>    -6.3985    10.1167     4.0697 </r>
       <r>    -6.3091    10.1769     4.9800 </r>
       <r>    -6.2196     7.3234     5.6350 </r>
       <r>    -6.1302     3.5958     5.9566 </r>
       <r>    -6.0408     2.0966     6.1441 </r>
       <r>    -5.9513     3.8627     6.4896 </r>
       <r>    -5.8619     7.2426     7.1374 </r>
       <r>    -5.7724    10.3323     8.0615 </r>
       <r>    -5.6830    11.8886     9.1249 </r>
       <r>    -5.5936    11.7393    10.1749 </r>
       <r>    -5.5041    10.9447    11.1538 </r>
       <r>    -5.4147     9.7135    12.0226 </r>
       <r>    -5.3252     7.4772    12.6913 </r>
       <r>    -5.2358     5.9705    13.2253 </r>
       <r>    -5.1464     8.2897    13.9668 </r>
       <r>    -5.0569    13.9155    15.2114 </r>
       <r>    -4.9675    17.2415    16.7535 </r>
       <r>    -4.8780    13.6024    17.9701 </r>
       <r>    -4.7886     6.1962    18.5243 </r>
       <r>    -4.6991     2.8242    18.7769 </r>
       <r>    -4.6097     6.3226    19.3424 </r>
       <r>    -4.5203    12.7614    20.4838 </r>
       <r>    -4.4308    17.8012    22.0760 </r>
       <r>    -4.3414    19.5987    23.8289 </r>
       <r>    -4.2519    17.4350    25.3884 </r>
       <r>    -4.1625    14.2051    26.6589 </r>
       <r>    -4.0731    15.9943    28.0894 </r>
       <r>    -3.9836    22.0744    30.0638 </r>
       <r>    -3.8942    23.6009    32.1747 </r>
       <r>    -3.8047    17.9244    33.7779 </r>
       <r>    -3.7153    12.3775    34.8850 </r>
       <r>    -3.6258    12.2743    35.9828 </r>
       <r>    -3.5364    16.2119    37.4328 </r>
       <r>    -3.4470    20.8026    39.2934 </r>
       <r>    -3.3575    22.1992    41.2789 </r>
       <r>    -3.2681    18.9243    42.9716 </r>
       <r>    -3.1786    15.7920    44.3840 </r>
       <r>    -3.0892    16.6409    45.8724 </r>
       <r>    -2.9998    19.3240    47.6008 </r>
       <r>    -2.9103    22.5355    49.6164 </r>
       <r>    -2.8209    26.1032    51.9511 </r>
       <r>    -2.7314    26.6088    54.3310 </r>
       <r>    -2.6420    21.8112    56.2819 </r>
       <r>    -2.5525    14.8433    57.6095 </r>
       <r>    -2.4631    10.7841    58.5740 </r>
       <r>    -2.3737    12.0698    59.6536 </r>
       <r>    -2.2842    15.9611    61.0811 </r>
       <r>    -2.1948    16.4271    62.5504 </r>
       <r>    -2.1053    11.3746    63.5678 </r>
       <r>    -2.0159     4.8330    64.0000 </r>
       <r>    -1.9265     0.8419    64.0753 </r>
       <r>    -1.8370    -0.3513    64.0439 </r>
       <r>    -1.7476    -0.3229    64.0150 </r>
       <r>    -1.6581    -0.1287    64.0035 </r>
       <r>    -1.5687    -0.0329    64.0006 </r>
       <r>    -1.4792    -0.0057    64.0001 </r>
       <r>    -1.3898    -0.0007    64.0000 </r>
       <r>    -1.3004    -0.0001    64.0000 </r>
       <r>    -1.2109    -0.0000    64.0000 </r>
       <r>    -1.1215    -0.0003    64.0000 </r>
       <r>    -1.0320    -0.0022    63.9998 </r>
       <r>    -0.9426    -0.0121    63.9987 </r>
       <r>    -0.8532    -0.0385    63.9953 </r>
       <r>    -0.7637    -0.0491    63.9909 </r>
       <r>    -0.6743     0.0889    63.9988 </r>
       <r>    -0.5848     0.4424    64.0384 </r>
       <r>    -0.4954     0.6941    64.1005 </r>
       <r>    -0.4060     0.7444    64.1670 </r>
       <r>    -0.3165     1.9350    64.3401 </r>
       <r>    -0.2271     5.6163    64.8425 </r>
       <r>    -0.1376     9.8494    65.7234 </r>
       <r>    -0.0482    10.8425    66.6932 </r>
       <r>     0.0413     8.2247    67.4288 </r>
       <r>     0.1307     5.9798    67.9636 </r>
       <r>     0.2201     7.7855    68.6600 </r>
       <r>     0.3096    13.2778    69.8476 </r>
       <r>     0.3990    19.4723    71.5892 </r>
       <r>     0.4885    23.5268    73.6935 </r>
       <r>     0.5779    24.5727    75.8913 </r>
       <r>     0.6673    25.0783    78.1343 </r>
       <r>     0.7568    28.1132    80.6488 </r>
       <r>     0.8462    31.7202    83.4859 </r>
       <r>     0.9357    31.2210    86.2784 </r>
       <r>     1.0251    28.3501    88.8140 </r>
       <r>     1.1146    29.5622    91.4581 </r>
       <r>     1.2040    35.0651    94.5944 </r>
       <r>     1.2934    37.2427    97.9254 </r>
       <r>     1.3829    30.5213   100.6553 </r>
       <r>     1.4723    17.8455   102.2514 </r>
       <r>     1.5618     6.2852   102.8136 </r>
       <r>     1.6512     0.0618   102.8191 </r>
       <r>     1.7406    -1.0053   102.7292 </r>
       <r>     1.8301     1.8139   102.8915 </r>
       <r>     1.9195     8.6786   103.6677 </r>
       <r>     2.0090    18.4093   105.3142 </r>
       <r>     2.0984    25.1148   107.5605 </r>
       <r>     2.1879    23.1311   109.6294 </r>
       <r>     2.2773    14.6945   110.9437 </r>
       <r>     2.3667     7.3220   111.5986 </r>
       <r>     2.4562     5.7735   112.1150 </r>
       <r>     2.5456    10.1226   113.0204 </r>
       <r>     2.6351    16.3312   114.4811 </r>
       <r>     2.7245    17.7985   116.0730 </r>
       <r>     2.8139    13.7937   117.3067 </r>
       <r>     2.9034    12.0975   118.3887 </r>
       <r>     2.9928    16.5510   119.8691 </r>
       <r>     3.0823    22.2428   121.8585 </r>
       <r>     3.1717    26.7439   124.2505 </r>
       <r>     3.2611    31.4040   127.0593 </r>
       <r>     3.3506    32.7442   129.9880 </r>
       <r>     3.4400    29.0024   132.5820 </r>
       <r>     3.5295    25.6730   134.8783 </r>
       <r>     3.6189    23.8940   137.0154 </r>
       <r>     3.7084    19.3956   138.7502 </r>
       <r>     3.7978    13.6922   139.9748 </r>
       <r>     3.8872    13.7204   141.2020 </r>
       <r>     3.9767    20.5687   143.0417 </r>
       <r>     4.0661    25.3642   145.3103 </r>
       <r>     4.1556    22.1661   147.2929 </r>
       <r>     4.2450    18.7480   148.9697 </r>
       <r>     4.3344    23.4386   151.0661 </r>
       <r>     4.4239    31.3124   153.8667 </r>
       <r>     4.5133    34.8990   156.9881 </r>
       <r>     4.6028    34.5193   160.0756 </r>
       <r>     4.6922    33.3070   163.0546 </r>
       <r>     4.7817    34.0339   166.0987 </r>
       <r>     4.8711    36.9306   169.4018 </r>
       <r>     4.9605    37.1866   172.7278 </r>
       <r>     5.0500    33.0659   175.6853 </r>
       <r>     5.1394    29.6658   178.3386 </r>
       <r>     5.2289    29.7006   180.9951 </r>
       <r>     5.3183    30.3620   183.7107 </r>
       <r>     5.4077    30.3812   186.4281 </r>
       <r>     5.4972    33.4339   189.4184 </r>
       <r>     5.5866    40.2214   193.0159 </r>
       <r>     5.6761    43.0422   196.8656 </r>
       <r>     5.7655    38.2213   200.2842 </r>
       <r>     5.8550    33.5622   203.2861 </r>
       <r>     5.9444    33.3685   206.2706 </r>
       <r>     6.0338    32.2127   209.1517 </r>
       <r>     6.1233    28.8373   211.7310 </r>
       <r>     6.2127    29.1376   214.3371 </r>
       <r>     6.3022    33.2198   217.3083 </r>
       <r>     6.3916    35.7112   220.5024 </r>
       <r>     6.4810    34.6099   223.5980 </r>
       <r>     6.5705    30.2392   226.3026 </r>
       <r>     6.6599    25.8951   228.6187 </r>
       <r>     6.7494    27.3870   231.0682 </r>
       <r>     6.8388    35.2165   234.2180 </r>
       <r>     6.9282    41.8576   237.9619 </r>
       <r>     7.0177    38.6083   241.4150 </r>
       <r>     7.1071    26.0631   243.7462 </r>
       <r>     7.1966    14.3770   245.0321 </r>
       <r>     7.2860    10.9667   246.0129 </r>
       <r>     7.3755    14.1647   247.2799 </r>
       <r>     7.4649    18.8092   248.9622 </r>
       <r>     7.5543    21.2523   250.8630 </r>
       <r>     7.6438    19.9120   252.6440 </r>
       <r>     7.7332    15.0867   253.9934 </r>
       <r>     7.8227     8.9316   254.7922 </r>
       <r>     7.9121     4.8873   255.2294 </r>
       <r>     8.0015     3.8971   255.5779 </r>
       <r>     8.0910     3.2682   255.8702 </r>
       <r>     8.1804     1.6118   256.0144 </r>
       <r>     8.2699     0.2086   256.0331 </r>
       <r>     8.3593    -0.2007   256.0151 </r>
       <r>     8.4488    -0.1263   256.0038 </r>
       <r>     8.5382    -0.0358   256.0006 </r>
       <r>     8.6276    -0.0060   256.0001 </r>
       <r>     8.7171    -0.0008   256.0000 </r>
       <r>     8.8065    -0.0011   255.9999 </r>
       <r>     8.8960    -0.0067   255.9993 </r>
       <r>     8.9854    -0.0241   255.9971 </r>
       <r>     9.0748    -0.0393   255.9936 </r>
       <r>     9.1643     0.0407   255.9973 </r>
       <r>     9.2537     0.3279   256.0266 </r>
       <r>     9.3432     0.6787   256.0873 </r>
       <r>     9.4326     0.7689   256.1561 </r>
       <r>     9.5221     0.7847   256.2263 </r>
       <r>     9.6115     1.2485   256.3379 </r>
       <r>     9.7009     1.7602   256.4954 </r>
       <r>     9.7904     1.4031   256.6209 </r>
       <r>     9.8798     0.4128   256.6578 </r>
       <r>     9.9693    -0.1343   256.6458 </r>
       <r>    10.0587     0.4488   256.6859 </r>
       <r>    10.1481     1.9742   256.8625 </r>
       <r>    10.2376     3.5588   257.1808 </r>
       <r>    10.3270     5.3311   257.6576 </r>
       <r>    10.4165     8.1967   258.3907 </r>
       <r>    10.5059    10.8810   259.3640 </r>
       <r>    10.5953    11.5935   260.4009 </r>
       <r>    10.6848    10.6391   261.3525 </r>
       <r>    10.7742     8.0791   262.0751 </r>
       <r>    10.8637     4.0514   262.4374 </r>
       <r>    10.9531     0.6269   262.4935 </r>
       <r>    11.0426    -0.7425   262.4271 </r>
       <r>    11.1320    -0.2111   262.4082 </r>
       <r>    11.2214     2.2264   262.6073 </r>
       <r>    11.3109     5.7177   263.1187 </r>
       <r>    11.4003     8.1275   263.8457 </r>
       <r>    11.4898     9.4725   264.6929 </r>
       <r>    11.5792    11.2363   265.6979 </r>
       <r>    11.6686    12.8879   266.8506 </r>
       <r>    11.7581    14.5942   268.1559 </r>
       <r>    11.8475    17.8430   269.7519 </r>
       <r>    11.9370    20.8260   271.6146 </r>
       <r>    12.0264    20.7039   273.4663 </r>
       <r>    12.1159    18.0490   275.0807 </r>
       <r>    12.2053    13.8145   276.3163 </r>
       <r>    12.2947     7.9541   277.0277 </r>
       <r>    12.3842     3.4376   277.3352 </r>
       <r>    12.4736     4.8860   277.7722 </r>
       <r>    12.5631    12.1768   278.8613 </r>
       <r>    12.6525    20.1571   280.6642 </r>
       <r>    12.7419    25.3752   282.9338 </r>
       <r>    12.8314    28.2458   285.4601 </r>
       <r>    12.9208    29.6103   288.1085 </r>
       <r>    13.0103    31.4443   290.9209 </r>
       <r>    13.0997    34.8873   294.0413 </r>
       <r>    13.1892    34.8765   297.1607 </r>
       <r>    13.2786    26.6351   299.5430 </r>
       <r>    13.3680    15.8163   300.9576 </r>
       <r>    13.4575    13.7716   302.1894 </r>
       <r>    13.5469    23.1396   304.2590 </r>
       <r>    13.6364    33.7481   307.2775 </r>
       <r>    13.7258    35.4746   310.4504 </r>
       <r>    13.8152    30.0481   313.1379 </r>
       <r>    13.9047    26.5971   315.5168 </r>
       <r>    13.9941    28.8930   318.1011 </r>
       <r>    14.0836    31.5490   320.9228 </r>
       <r>    14.1730    28.6014   323.4810 </r>
       <r>    14.2625    20.0513   325.2744 </r>
       <r>    14.3519    10.1689   326.1839 </r>
       <r>    14.4413     3.7635   326.5205 </r>
       <r>    14.5308     3.7019   326.8516 </r>
       <r>    14.6202     9.7435   327.7231 </r>
       <r>    14.7097    17.6257   329.2996 </r>
       <r>    14.7991    21.1787   331.1938 </r>
       <r>    14.8885    18.5960   332.8571 </r>
       <r>    14.9780    13.0031   334.0201 </r>
       <r>    15.0674     7.0412   334.6499 </r>
       <r>    15.1569     2.2505   334.8512 </r>
       <r>    15.2463     0.4500   334.8914 </r>
       <r>    15.3357     1.8661   335.0583 </r>
       <r>    15.4252     4.0486   335.4204 </r>
       <r>    15.5146     4.1770   335.7940 </r>
       <r>    15.6041     2.2533   335.9956 </r>
       <r>    15.6935     0.4415   336.0351 </r>
       <r>    15.7830    -0.1853   336.0185 </r>
       <r>    15.8724    -0.1505   336.0050 </r>
       <r>    15.9618    -0.0469   336.0008 </r>
       <r>    16.0513    -0.0084   336.0001 </r>
       <r>    16.1407    -0.0009   336.0000 </r>
       <r>    16.2302    -0.0001   336.0000 </r>
       <r>    16.3196    -0.0000   336.0000 </r>
       <r>    16.4090    -0.0000   336.0000 </r>
       <r>    16.4985    -0.0000   336.0000 </r>
       <r>    16.5879    -0.0000   336.0000 </r>
       <r>    16.6774    -0.0000   336.0000 </r>
       <r>    16.7668    -0.0000   336.0000 </r>
       <r>    16.8563     0.0000   336.0000 </r>
       <r>    16.9457     0.0000   336.0000 </r>
       <r>    17.0351     0.0000   336.0000 </r>
       <r>    17.1246     0.0000   336.0000 </r>
       <r>    17.2140     0.0000   336.0000 </r>
       <r>    17.3035     0.0000   336.0000 </r>
       <r>    17.3929     0.0000   336.0000 </r>
       <r>    17.4823     0.0000   336.0000 </r>
      </set>
     </set>
    </array>
   </total>
  </dos>
 </calculation>
 <structure name="finalpos" >
  <crystal>
   <varray name="basis" >
    <v>       8.74331558       0.00000000       0.00000000 </v>
    <v>       0.00000000       8.74331558       0.00000000 </v>
    <v>       0.00000000       0.00000000       8.74331558 </v>
   </varray>
   <i name="volume">    668.38771987 </i>
   <varray name="rec_basis" >
    <v>       0.11437309       0.00000000       0.00000000 </v>
    <v>       0.00000000       0.11437309       0.00000000 </v>
    <v>       0.00000000       0.00000000       0.11437309 </v>
   </varray>
  </crystal>
  <varray name="positions" >
   <v>       0.12581621       0.12480646       0.12205046 </v>
   <v>       0.12816583       0.37476936       0.37064648 </v>
   <v>       0.37288013       0.12640141       0.37197718 </v>
   <v>       0.37373154       0.37150034       0.12704419 </v>
   <v>       0.12618677       0.11991612       0.62655141 </v>
   <v>       0.12751552       0.37747746       0.87396159 </v>
   <v>       0.37532855       0.12329769       0.87904435 </v>
   <v>       0.37312433       0.37276250       0.62931103 </v>
   <v>       0.12190253       0.62822196       0.12365256 </v>
   <v>       0.12404771       0.87778598       0.37916485 </v>
   <v>       0.37465393       0.62773773       0.37780452 </v>
   <v>       0.37644280       0.86808509       0.12181940 </v>
   <v>       0.12556948       0.62400888       0.62743594 </v>
   <v>       0.12452106       0.87494201       0.87866375 </v>
   <v>       0.37737754       0.61787049       0.87644435 </v>
   <v>       0.37592462       0.86940599       0.62468330 </v>
   <v>       0.62608369       0.12571696       0.12768366 </v>
   <v>       0.62691035       0.37439531       0.37829654 </v>
   <v>       0.87877037       0.12453496       0.37577617 </v>
   <v>       0.87450586       0.37454813       0.12528585 </v>
   <v>       0.62613537       0.12762946       0.62524315 </v>
   <v>       0.62596531       0.37598110       0.87358491 </v>
   <v>       0.87608975       0.12034341       0.87715958 </v>
   <v>       0.87578796       0.37374398       0.62302863 </v>
   <v>       0.62589693       0.62691413       0.12334624 </v>
   <v>       0.62713467       0.87631331       0.37199239 </v>
   <v>       0.87717579       0.62252582       0.37617607 </v>
   <v>       0.87804945       0.87396017       0.12452352 </v>
   <v>       0.62109787       0.62053164       0.62602279 </v>
   <v>       0.62189286       0.87813959       0.87428822 </v>
   <v>       0.87588666       0.62397213       0.87778550 </v>
   <v>       0.87644102       0.87384808       0.62339812 </v>
   <v>       0.00401916       0.99826351       0.00244230 </v>
   <v>       0.99995073       0.24712323       0.24873466 </v>
   <v>       0.25069707       0.99571591       0.25368677 </v>
   <v>       0.24831496       0.25257032       0.00251058 </v>
   <v>       0.99851133       0.99723094       0.50057801 </v>
   <v>       0.00058610       0.24862508       0.74862287 </v>
   <v>       0.24654751       0.99750716       0.74820019 </v>
   <v>       0.25056460       0.25189925       0.50041921 </v>
   <v>       0.00006429       0.49720988       0.99829431 </v>
   <v>       0.99735524       0.74776996       0.25017509 </v>
   <v>       0.24647652       0.49769613       0.24897149 </v>
   <v>       0.25096957       0.75197883       0.00148629 </v>
   <v>       0.00200092       0.49654256       0.49920463 </v>
   <v>       0.00335545       0.74567744       0.75065054 </v>
   <v>       0.24880136       0.49938356       0.74951980 </v>
   <v>       0.24852363       0.74781195       0.50260281 </v>
   <v>       0.50185828       0.00434102       0.99844088 </v>
   <v>       0.49621118       0.25480608       0.25203177 </v>
   <v>       0.74521587       0.00186357       0.25080835 </v>
   <v>       0.75260288       0.24495653       0.99776782 </v>
   <v>       0.49515059       0.99642894       0.49969802 </v>
   <v>       0.49586919       0.25029457       0.74734512 </v>
   <v>       0.75095948       0.00230785       0.75685128 </v>
   <v>       0.74721681       0.25347126       0.49911474 </v>
   <v>       0.49675276       0.49692621       0.99868281 </v>
   <v>       0.50354574       0.75389518       0.24576462 </v>
   <v>       0.74894598       0.50107616       0.25321475 </v>
   <v>       0.75274194       0.75202610       0.00029344 </v>
   <v>       0.50493336       0.50175517       0.50249577 </v>
   <v>       0.49745498       0.74901405       0.74489318 </v>
   <v>       0.75166746       0.50101169       0.74498433 </v>
   <v>       0.75000958       0.74498111       0.49783392 </v>
  </varray>
 </structure>
</modeling>
