unknown system                          
           1
     8.743316    0.000000    0.000000
     0.000000    8.743316    0.000000
     0.000000    0.000000    8.743316
   C    Si
    32    32
Direct configuration=     1
   0.12581621  0.12480646  0.12205046
   0.12816583  0.37476936  0.37064648
   0.37288013  0.12640141  0.37197718
   0.37373154  0.37150034  0.12704419
   0.12618677  0.11991612  0.62655141
   0.12751552  0.37747746  0.87396159
   0.37532855  0.12329769  0.87904435
   0.37312433  0.37276250  0.62931103
   0.12190253  0.62822196  0.12365256
   0.12404771  0.87778598  0.37916485
   0.37465393  0.62773773  0.37780452
   0.37644280  0.86808509  0.12181940
   0.12556948  0.62400888  0.62743594
   0.12452106  0.87494201  0.87866375
   0.37737754  0.61787049  0.87644435
   0.37592462  0.86940599  0.62468330
   0.62608369  0.12571696  0.12768366
   0.62691035  0.37439531  0.37829654
   0.87877037  0.12453496  0.37577617
   0.87450586  0.37454813  0.12528585
   0.62613537  0.12762946  0.62524315
   0.62596531  0.37598110  0.87358491
   0.87608975  0.12034341  0.87715958
   0.87578796  0.37374398  0.62302863
   0.62589693  0.62691413  0.12334624
   0.62713467  0.87631331  0.37199239
   0.87717579  0.62252582  0.37617607
   0.87804945  0.87396017  0.12452352
   0.62109787  0.62053164  0.62602279
   0.62189286  0.87813959  0.87428822
   0.87588666  0.62397213  0.87778550
   0.87644102  0.87384808  0.62339812
   0.00401916  0.99826351  0.00244230
   0.99995073  0.24712323  0.24873466
   0.25069707  0.99571591  0.25368677
   0.24831496  0.25257032  0.00251058
   0.99851133  0.99723094  0.50057801
   0.00058610  0.24862508  0.74862287
   0.24654751  0.99750716  0.74820019
   0.25056460  0.25189925  0.50041921
   0.00006429  0.49720988  0.99829431
   0.99735524  0.74776996  0.25017509
   0.24647652  0.49769613  0.24897149
   0.25096957  0.75197883  0.00148629
   0.00200092  0.49654256  0.49920463
   0.00335545  0.74567744  0.75065054
   0.24880136  0.49938356  0.74951980
   0.24852363  0.74781195  0.50260281
   0.50185828  0.00434102  0.99844088
   0.49621118  0.25480608  0.25203177
   0.74521587  0.00186357  0.25080835
   0.75260288  0.24495653  0.99776782
   0.49515059  0.99642894  0.49969802
   0.49586919  0.25029457  0.74734512
   0.75095948  0.00230785  0.75685128
   0.74721681  0.25347126  0.49911474
   0.49675276  0.49692621  0.99868281
   0.50354574  0.75389518  0.24576462
   0.74894598  0.50107616  0.25321475
   0.75274194  0.75202610  0.00029344
   0.50493336  0.50175517  0.50249577
   0.49745498  0.74901405  0.74489318
   0.75166746  0.50101169  0.74498433
   0.75000958  0.74498111  0.49783392
