   64   64    1    1
  0.1044356E+02  0.8743316E-09  0.8743316E-09  0.8743316E-09  0.5000000E-15
  1.000000000000000E-004
  CAR 
 unknown system                          
    256     14    168
 
  0.0000000E+00  0.0000000E+00  0.0000000E+00  0.3703704E-01
    1       -7.330220   1.000000
    2       -5.745159   1.000000
    3       -5.745159   1.000000
    4       -5.745159   1.000000
    5       -5.745159   1.000000
    6       -5.745158   1.000000
    7       -5.745158   1.000000
    8       -4.332012   1.000000
    9       -4.332011   1.000000
   10       -4.332011   1.000000
   11       -4.332011   1.000000
   12       -4.332011   1.000000
   13       -4.332011   1.000000
   14       -4.332011   1.000000
   15       -4.332011   1.000000
   16       -4.332010   1.000000
   17       -4.332010   1.000000
   18       -4.332009   1.000000
   19       -4.332009   1.000000
   20       -3.800374   1.000000
   21       -3.800374   1.000000
   22       -3.800374   1.000000
   23       -3.800374   1.000000
   24       -2.359750   1.000000
   25       -2.359750   1.000000
   26       -2.359750   1.000000
   27       -2.133920   1.000000
   28       -2.133919   1.000000
   29       -2.133919   1.000000
   30       -2.133919   1.000000
   31       -2.133918   1.000000
   32       -2.133918   1.000000
   33       -0.482146   1.000000
   34       -0.482146   1.000000
   35       -0.482146   1.000000
   36       -0.482146   1.000000
   37        0.235824   1.000000
   38        0.235824   1.000000
   39        0.235824   1.000000
   40        0.994873   1.000000
   41        0.994873   1.000000
   42        0.994873   1.000000
   43        0.994873   1.000000
   44        0.994873   1.000000
   45        0.994873   1.000000
   46        2.080090   1.000000
   47        2.080090   1.000000
   48        2.080090   1.000000
   49        2.080090   1.000000
   50        2.080090   1.000000
   51        2.080090   1.000000
   52        2.080090   1.000000
   53        2.080090   1.000000
   54        2.080090   1.000000
   55        2.080091   1.000000
   56        2.080091   1.000000
   57        2.080091   1.000000
   58        3.056781   1.000000
   59        3.056781   1.000000
   60        3.056781   1.000000
   61        3.056781   1.000000
   62        3.056781   1.000000
   63        3.056782   1.000000
   64        3.351684   1.000000
   65        3.351684   1.000000
   66        3.351684   1.000000
   67        3.351684   1.000000
   68        3.351684   1.000000
   69        3.351684   1.000000
   70        3.691010   1.000000
   71        3.691010   1.000000
   72        3.691010   1.000000
   73        3.691010   1.000000
   74        3.691010   1.000000
   75        3.691010   1.000000
   76        3.691010   1.000000
   77        3.691011   1.000000
   78        3.691011   1.000000
   79        3.691011   1.000000
   80        3.691011   1.000000
   81        3.691011   1.000000
   82        4.652328   1.000000
   83        4.652328   1.000000
   84        4.652328   1.000000
   85        4.652328   1.000000
   86        4.652328   1.000000
   87        4.652328   1.000000
   88        4.833747   1.000000
   89        4.833747   1.000000
   90        4.833747   1.000000
   91        4.833747   1.000000
   92        4.833747   1.000000
   93        4.833747   1.000000
   94        6.080977   1.000000
   95        6.080977   1.000000
   96        6.080977   1.000000
   97        6.080977   1.000000
   98        6.080977   1.000000
   99        6.080977   1.000000
  100        6.080977   1.000000
  101        6.080977   1.000000
  102        6.080977   1.000000
  103        6.080978   1.000000
  104        6.080978   1.000000
  105        6.080978   1.000000
  106        6.823242   1.000000
  107        6.823242   1.000000
  108        6.823242   1.000000
  109        6.823242   1.000000
  110        6.823242   1.000000
  111        6.823242   1.000000
  112        6.823242   1.000000
  113        6.823243   1.000000
  114        6.823243   1.000000
  115        6.823243   1.000000
  116        6.823243   1.000000
  117        6.823243   1.000000
  118        6.950715   1.000000
  119        6.950715   1.000000
  120        6.950715   1.000000
  121        6.950715   1.000000
  122        6.950715   1.000000
  123        6.950716   1.000000
  124        6.950716   1.000000
  125        6.950716   1.000000
  126        8.008733   0.930312
  127        8.008733   0.930312
  128        8.008733   0.930312
  129        9.367787  -0.000000
  130        9.367787  -0.000000
  131        9.367787  -0.000000
  132       12.030012  -0.000000
  133       12.030012  -0.000000
  134       12.030012  -0.000000
  135       12.030012  -0.000000
  136       12.030012  -0.000000
  137       12.030012  -0.000000
  138       12.293563  -0.000000
  139       12.293563  -0.000000
  140       12.293563  -0.000000
  141       13.200091  -0.000000
  142       13.200091  -0.000000
  143       13.200091  -0.000000
  144       13.200091  -0.000000
  145       13.200091  -0.000000
  146       13.200091  -0.000000
  147       13.349124  -0.000000
  148       13.349124  -0.000000
  149       13.349124  -0.000000
  150       13.349124  -0.000000
  151       13.499630  -0.000000
  152       13.499630  -0.000000
  153       13.499630  -0.000000
  154       13.499630  -0.000000
  155       13.499630  -0.000000
  156       13.499630  -0.000000
  157       13.499630  -0.000000
  158       13.499630  -0.000000
  159       13.499630  -0.000000
  160       13.499630  -0.000000
  161       13.499630  -0.000000
  162       13.499630  -0.000000
  163       14.119886   0.000000
  164       14.303413   0.000000
  165       14.303413   0.000000
  166       14.303413   0.000000
  167       14.303413   0.000000
  168       14.303413   0.000000
 
  0.3333333E+00  0.0000000E+00  0.0000000E+00  0.7407407E-01
    1       -7.150522   1.000000
    2       -6.616353   1.000000
    3       -5.580104   1.000000
    4       -5.580103   1.000000
    5       -5.580103   1.000000
    6       -5.580103   1.000000
    7       -5.095777   1.000000
    8       -5.095776   1.000000
    9       -5.095776   1.000000
   10       -5.095775   1.000000
   11       -4.577966   1.000000
   12       -4.222455   1.000000
   13       -4.222455   1.000000
   14       -4.222454   1.000000
   15       -4.222454   1.000000
   16       -3.962083   1.000000
   17       -3.962083   1.000000
   18       -3.962083   1.000000
   19       -3.962083   1.000000
   20       -3.389689   1.000000
   21       -3.389689   1.000000
   22       -3.389688   1.000000
   23       -3.389688   1.000000
   24       -3.234720   1.000000
   25       -2.512810   1.000000
   26       -2.512809   1.000000
   27       -2.512809   1.000000
   28       -2.512808   1.000000
   29       -2.307101   1.000000
   30       -2.307100   1.000000
   31       -2.194530   1.000000
   32       -2.194529   1.000000
   33       -0.015666   1.000000
   34       -0.015666   1.000000
   35       -0.015665   1.000000
   36       -0.015665   1.000000
   37        0.376352   1.000000
   38        0.376352   1.000000
   39        0.735861   1.000000
   40        0.735861   1.000000
   41        1.063963   1.000000
   42        1.063963   1.000000
   43        1.063963   1.000000
   44        1.063963   1.000000
   45        1.106195   1.000000
   46        1.106195   1.000000
   47        1.106195   1.000000
   48        1.106195   1.000000
   49        1.243117   1.000000
   50        1.405352   1.000000
   51        1.405353   1.000000
   52        1.405353   1.000000
   53        1.405353   1.000000
   54        2.719593   1.000000
   55        2.719593   1.000000
   56        2.719593   1.000000
   57        2.719593   1.000000
   58        2.949542   1.000000
   59        2.982985   1.000000
   60        2.982985   1.000000
   61        2.982985   1.000000
   62        2.982985   1.000000
   63        3.009377   1.000000
   64        3.009378   1.000000
   65        3.009378   1.000000
   66        3.009378   1.000000
   67        3.529044   1.000000
   68        3.529044   1.000000
   69        3.653052   1.000000
   70        3.653052   1.000000
   71        4.034148   1.000000
   72        4.034148   1.000000
   73        4.034148   1.000000
   74        4.034148   1.000000
   75        4.370676   1.000000
   76        4.370677   1.000000
   77        4.390554   1.000000
   78        4.390554   1.000000
   79        4.450754   1.000000
   80        4.450754   1.000000
   81        4.450754   1.000000
   82        4.450754   1.000000
   83        4.653741   1.000000
   84        4.653741   1.000000
   85        4.653741   1.000000
   86        4.653741   1.000000
   87        4.814477   1.000000
   88        4.814477   1.000000
   89        4.814477   1.000000
   90        4.814477   1.000000
   91        4.980758   1.000000
   92        4.980758   1.000000
   93        5.409970   1.000000
   94        5.409970   1.000000
   95        5.620240   1.000000
   96        5.620240   1.000000
   97        5.620240   1.000000
   98        5.620240   1.000000
   99        5.894860   1.000000
  100        5.894860   1.000000
  101        5.894860   1.000000
  102        5.894860   1.000000
  103        6.200642   1.000000
  104        6.281196   1.000000
  105        6.281196   1.000000
  106        6.281196   1.000000
  107        6.281196   1.000000
  108        6.479721   1.000000
  109        6.479722   1.000000
  110        6.479722   1.000000
  111        6.479722   1.000000
  112        6.854313   1.000000
  113        6.854313   1.000000
  114        6.854314   1.000000
  115        6.854314   1.000000
  116        6.901465   1.000000
  117        6.901465   1.000000
  118        6.907752   1.000000
  119        6.907752   1.000000
  120        6.907752   1.000000
  121        6.907753   1.000000
  122        6.919117   1.000000
  123        6.919117   1.000000
  124        6.919118   1.000000
  125        6.919118   1.000000
  126        7.455691   1.000009
  127        7.665408   1.002295
  128        7.665408   1.002295
  129        9.691012  -0.000000
  130       10.213143  -0.000000
  131       10.213144  -0.000000
  132       10.633833  -0.000000
  133       11.986126  -0.000000
  134       11.986127  -0.000000
  135       12.512300  -0.000000
  136       12.672380  -0.000000
  137       12.672380  -0.000000
  138       12.672380  -0.000000
  139       12.672380  -0.000000
  140       13.002007  -0.000000
  141       13.002007  -0.000000
  142       13.002007  -0.000000
  143       13.002007  -0.000000
  144       13.092717  -0.000000
  145       13.092717  -0.000000
  146       13.101823  -0.000000
  147       13.101823  -0.000000
  148       13.101823  -0.000000
  149       13.101823  -0.000000
  150       13.181677  -0.000000
  151       13.496990  -0.000000
  152       13.658015   0.000000
  153       13.658015   0.000000
  154       13.658015   0.000000
  155       13.658015   0.000000
  156       13.695553   0.000000
  157       13.695553   0.000000
  158       13.695554   0.000000
  159       13.695554   0.000000
  160       13.973190   0.000000
  161       13.973190   0.000000
  162       13.973191   0.000000
  163       13.973191   0.000000
  164       14.487008   0.000000
  165       14.895873   0.000000
  166       14.906726   0.000000
  167       14.907357   0.000000
  168       14.910638   0.000000
 
  0.0000000E+00  0.3333333E+00  0.0000000E+00  0.7407407E-01
    1       -7.150522   1.000000
    2       -6.616353   1.000000
    3       -5.580104   1.000000
    4       -5.580103   1.000000
    5       -5.580103   1.000000
    6       -5.580103   1.000000
    7       -5.095777   1.000000
    8       -5.095776   1.000000
    9       -5.095776   1.000000
   10       -5.095776   1.000000
   11       -4.577966   1.000000
   12       -4.222455   1.000000
   13       -4.222455   1.000000
   14       -4.222454   1.000000
   15       -4.222454   1.000000
   16       -3.962083   1.000000
   17       -3.962083   1.000000
   18       -3.962083   1.000000
   19       -3.962083   1.000000
   20       -3.389689   1.000000
   21       -3.389689   1.000000
   22       -3.389688   1.000000
   23       -3.389688   1.000000
   24       -3.234720   1.000000
   25       -2.512809   1.000000
   26       -2.512809   1.000000
   27       -2.512809   1.000000
   28       -2.512808   1.000000
   29       -2.307101   1.000000
   30       -2.307101   1.000000
   31       -2.194529   1.000000
   32       -2.194529   1.000000
   33       -0.015666   1.000000
   34       -0.015666   1.000000
   35       -0.015665   1.000000
   36       -0.015665   1.000000
   37        0.376352   1.000000
   38        0.376352   1.000000
   39        0.735861   1.000000
   40        0.735861   1.000000
   41        1.063963   1.000000
   42        1.063963   1.000000
   43        1.063963   1.000000
   44        1.063963   1.000000
   45        1.106195   1.000000
   46        1.106195   1.000000
   47        1.106195   1.000000
   48        1.106195   1.000000
   49        1.243117   1.000000
   50        1.405353   1.000000
   51        1.405353   1.000000
   52        1.405353   1.000000
   53        1.405353   1.000000
   54        2.719593   1.000000
   55        2.719593   1.000000
   56        2.719593   1.000000
   57        2.719593   1.000000
   58        2.949542   1.000000
   59        2.982985   1.000000
   60        2.982985   1.000000
   61        2.982985   1.000000
   62        2.982985   1.000000
   63        3.009377   1.000000
   64        3.009378   1.000000
   65        3.009378   1.000000
   66        3.009378   1.000000
   67        3.529044   1.000000
   68        3.529044   1.000000
   69        3.653052   1.000000
   70        3.653052   1.000000
   71        4.034148   1.000000
   72        4.034148   1.000000
   73        4.034148   1.000000
   74        4.034148   1.000000
   75        4.370676   1.000000
   76        4.370676   1.000000
   77        4.390554   1.000000
   78        4.390554   1.000000
   79        4.450754   1.000000
   80        4.450754   1.000000
   81        4.450754   1.000000
   82        4.450754   1.000000
   83        4.653741   1.000000
   84        4.653741   1.000000
   85        4.653741   1.000000
   86        4.653741   1.000000
   87        4.814477   1.000000
   88        4.814477   1.000000
   89        4.814477   1.000000
   90        4.814477   1.000000
   91        4.980758   1.000000
   92        4.980758   1.000000
   93        5.409970   1.000000
   94        5.409970   1.000000
   95        5.620240   1.000000
   96        5.620240   1.000000
   97        5.620240   1.000000
   98        5.620240   1.000000
   99        5.894860   1.000000
  100        5.894860   1.000000
  101        5.894860   1.000000
  102        5.894860   1.000000
  103        6.200642   1.000000
  104        6.281196   1.000000
  105        6.281196   1.000000
  106        6.281196   1.000000
  107        6.281196   1.000000
  108        6.479721   1.000000
  109        6.479722   1.000000
  110        6.479722   1.000000
  111        6.479722   1.000000
  112        6.854313   1.000000
  113        6.854313   1.000000
  114        6.854313   1.000000
  115        6.854313   1.000000
  116        6.901465   1.000000
  117        6.901465   1.000000
  118        6.907752   1.000000
  119        6.907752   1.000000
  120        6.907752   1.000000
  121        6.907753   1.000000
  122        6.919117   1.000000
  123        6.919117   1.000000
  124        6.919117   1.000000
  125        6.919117   1.000000
  126        7.455691   1.000009
  127        7.665408   1.002295
  128        7.665408   1.002295
  129        9.691012  -0.000000
  130       10.213143  -0.000000
  131       10.213143  -0.000000
  132       10.633833  -0.000000
  133       11.986127  -0.000000
  134       11.986127  -0.000000
  135       12.512300  -0.000000
  136       12.672380  -0.000000
  137       12.672380  -0.000000
  138       12.672380  -0.000000
  139       12.672380  -0.000000
  140       13.002007  -0.000000
  141       13.002007  -0.000000
  142       13.002007  -0.000000
  143       13.002007  -0.000000
  144       13.092717  -0.000000
  145       13.092717  -0.000000
  146       13.101823  -0.000000
  147       13.101823  -0.000000
  148       13.101823  -0.000000
  149       13.101823  -0.000000
  150       13.181677  -0.000000
  151       13.496990  -0.000000
  152       13.658015   0.000000
  153       13.658015   0.000000
  154       13.658015   0.000000
  155       13.658015   0.000000
  156       13.695553   0.000000
  157       13.695553   0.000000
  158       13.695554   0.000000
  159       13.695554   0.000000
  160       13.973190   0.000000
  161       13.973190   0.000000
  162       13.973191   0.000000
  163       13.973191   0.000000
  164       14.487008   0.000000
  165       14.891352   0.000000
  166       14.906710   0.000000
  167       14.908318   0.000000
  168       14.912472   0.000000
 
  0.3333333E+00  0.3333333E+00  0.0000000E+00  0.7407407E-01
    1       -6.972103   1.000000
    2       -6.442294   1.000000
    3       -6.442294   1.000000
    4       -5.927093   1.000000
    5       -5.418849   1.000000
    6       -5.418849   1.000000
    7       -4.948773   1.000000
    8       -4.948773   1.000000
    9       -4.948772   1.000000
   10       -4.948772   1.000000
   11       -4.534129   1.000000
   12       -4.534128   1.000000
   13       -4.430969   1.000000
   14       -4.430968   1.000000
   15       -4.009940   1.000000
   16       -4.009940   1.000000
   17       -3.504612   1.000000
   18       -3.504612   1.000000
   19       -3.380761   1.000000
   20       -3.380761   1.000000
   21       -3.380760   1.000000
   22       -3.380760   1.000000
   23       -3.126716   1.000000
   24       -3.126716   1.000000
   25       -2.842423   1.000000
   26       -2.842423   1.000000
   27       -2.743346   1.000000
   28       -2.726981   1.000000
   29       -2.726981   1.000000
   30       -2.318825   1.000000
   31       -2.318825   1.000000
   32       -2.292860   1.000000
   33       -0.159945   1.000000
   34       -0.159945   1.000000
   35        0.502179   1.000000
   36        0.566564   1.000000
   37        0.566564   1.000000
   38        0.566564   1.000000
   39        0.566564   1.000000
   40        0.661572   1.000000
   41        0.661572   1.000000
   42        0.803293   1.000000
   43        0.803293   1.000000
   44        0.837048   1.000000
   45        0.837048   1.000000
   46        0.986201   1.000000
   47        1.222259   1.000000
   48        1.222259   1.000000
   49        1.257547   1.000000
   50        1.257547   1.000000
   51        2.063783   1.000000
   52        2.063783   1.000000
   53        2.067520   1.000000
   54        2.067520   1.000000
   55        2.067520   1.000000
   56        2.067520   1.000000
   57        2.413427   1.000000
   58        2.584044   1.000000
   59        2.584044   1.000000
   60        2.693490   1.000000
   61        2.693491   1.000000
   62        3.240133   1.000000
   63        3.240133   1.000000
   64        3.290745   1.000000
   65        3.315321   1.000000
   66        3.315321   1.000000
   67        3.524167   1.000000
   68        3.524168   1.000000
   69        3.927589   1.000000
   70        3.927589   1.000000
   71        4.062446   1.000000
   72        4.062446   1.000000
   73        4.062446   1.000000
   74        4.062446   1.000000
   75        4.104007   1.000000
   76        4.309818   1.000000
   77        4.309818   1.000000
   78        4.486110   1.000000
   79        4.486110   1.000000
   80        4.674956   1.000000
   81        4.674957   1.000000
   82        4.904267   1.000000
   83        4.904267   1.000000
   84        4.921017   1.000000
   85        4.921017   1.000000
   86        4.931123   1.000000
   87        4.931123   1.000000
   88        5.101596   1.000000
   89        5.301538   1.000000
   90        5.301538   1.000000
   91        5.419577   1.000000
   92        5.419577   1.000000
   93        5.468270   1.000000
   94        5.468270   1.000000
   95        5.582298   1.000000
   96        5.598352   1.000000
   97        5.598352   1.000000
   98        5.603082   1.000000
   99        5.603082   1.000000
  100        5.603083   1.000000
  101        5.603083   1.000000
  102        5.840723   1.000000
  103        6.023474   1.000000
  104        6.023474   1.000000
  105        6.023475   1.000000
  106        6.023475   1.000000
  107        6.207394   1.000000
  108        6.207394   1.000000
  109        6.270120   1.000000
  110        6.270120   1.000000
  111        6.422735   1.000000
  112        6.422735   1.000000
  113        6.483701   1.000000
  114        6.483701   1.000000
  115        6.532592   1.000000
  116        6.663163   1.000000
  117        6.663163   1.000000
  118        6.700919   1.000000
  119        6.700919   1.000000
  120        6.863590   1.000000
  121        6.863590   1.000000
  122        6.863590   1.000000
  123        6.863590   1.000000
  124        7.299412   1.000000
  125        7.476892   1.000018
  126        7.476892   1.000018
  127        7.625076   1.000958
  128        7.954582   1.010403
  129       10.440877  -0.000000
  130       10.499499  -0.000000
  131       10.499499  -0.000000
  132       11.354710  -0.000000
  133       11.354710  -0.000000
  134       11.669596  -0.000000
  135       11.669597  -0.000000
  136       11.814157  -0.000000
  137       12.208576  -0.000000
  138       12.208576  -0.000000
  139       12.884496  -0.000000
  140       12.884496  -0.000000
  141       12.884557  -0.000000
  142       12.884557  -0.000000
  143       13.111303  -0.000000
  144       13.111303  -0.000000
  145       13.173741  -0.000000
  146       13.173741  -0.000000
  147       13.173741  -0.000000
  148       13.173741  -0.000000
  149       13.294513  -0.000000
  150       13.294513  -0.000000
  151       13.569063  -0.000000
  152       13.569063  -0.000000
  153       13.609452   0.000000
  154       13.609452   0.000000
  155       13.766489   0.000000
  156       13.766489   0.000000
  157       13.766489   0.000000
  158       13.766489   0.000000
  159       13.907694   0.000000
  160       13.907695   0.000000
  161       13.993510   0.000000
  162       14.085643   0.000000
  163       14.085643   0.000000
  164       14.689422   0.000000
  165       14.767072   0.000000
  166       14.767076   0.000000
  167       14.981444   0.000000
  168       15.031668   0.000000
 
 -0.3333333E+00  0.3333333E+00  0.0000000E+00  0.7407407E-01
    1       -6.972103   1.000000
    2       -6.442294   1.000000
    3       -6.442294   1.000000
    4       -5.927093   1.000000
    5       -5.418849   1.000000
    6       -5.418849   1.000000
    7       -4.948773   1.000000
    8       -4.948773   1.000000
    9       -4.948773   1.000000
   10       -4.948772   1.000000
   11       -4.534129   1.000000
   12       -4.534128   1.000000
   13       -4.430969   1.000000
   14       -4.430968   1.000000
   15       -4.009940   1.000000
   16       -4.009940   1.000000
   17       -3.504612   1.000000
   18       -3.504612   1.000000
   19       -3.380761   1.000000
   20       -3.380761   1.000000
   21       -3.380760   1.000000
   22       -3.380760   1.000000
   23       -3.126716   1.000000
   24       -3.126716   1.000000
   25       -2.842423   1.000000
   26       -2.842423   1.000000
   27       -2.743346   1.000000
   28       -2.726981   1.000000
   29       -2.726981   1.000000
   30       -2.318825   1.000000
   31       -2.318825   1.000000
   32       -2.292860   1.000000
   33       -0.159945   1.000000
   34       -0.159945   1.000000
   35        0.502179   1.000000
   36        0.566564   1.000000
   37        0.566564   1.000000
   38        0.566564   1.000000
   39        0.566564   1.000000
   40        0.661572   1.000000
   41        0.661572   1.000000
   42        0.803293   1.000000
   43        0.803293   1.000000
   44        0.837048   1.000000
   45        0.837048   1.000000
   46        0.986201   1.000000
   47        1.222259   1.000000
   48        1.222259   1.000000
   49        1.257547   1.000000
   50        1.257547   1.000000
   51        2.063783   1.000000
   52        2.063783   1.000000
   53        2.067520   1.000000
   54        2.067520   1.000000
   55        2.067520   1.000000
   56        2.067520   1.000000
   57        2.413427   1.000000
   58        2.584044   1.000000
   59        2.584044   1.000000
   60        2.693490   1.000000
   61        2.693490   1.000000
   62        3.240133   1.000000
   63        3.240133   1.000000
   64        3.290745   1.000000
   65        3.315321   1.000000
   66        3.315321   1.000000
   67        3.524167   1.000000
   68        3.524168   1.000000
   69        3.927589   1.000000
   70        3.927589   1.000000
   71        4.062446   1.000000
   72        4.062446   1.000000
   73        4.062446   1.000000
   74        4.062446   1.000000
   75        4.104007   1.000000
   76        4.309818   1.000000
   77        4.309818   1.000000
   78        4.486110   1.000000
   79        4.486110   1.000000
   80        4.674956   1.000000
   81        4.674957   1.000000
   82        4.904267   1.000000
   83        4.904267   1.000000
   84        4.921017   1.000000
   85        4.921017   1.000000
   86        4.931123   1.000000
   87        4.931123   1.000000
   88        5.101596   1.000000
   89        5.301538   1.000000
   90        5.301538   1.000000
   91        5.419577   1.000000
   92        5.419577   1.000000
   93        5.468270   1.000000
   94        5.468270   1.000000
   95        5.582298   1.000000
   96        5.598352   1.000000
   97        5.598352   1.000000
   98        5.603082   1.000000
   99        5.603082   1.000000
  100        5.603082   1.000000
  101        5.603083   1.000000
  102        5.840723   1.000000
  103        6.023474   1.000000
  104        6.023474   1.000000
  105        6.023474   1.000000
  106        6.023474   1.000000
  107        6.207394   1.000000
  108        6.207394   1.000000
  109        6.270120   1.000000
  110        6.270120   1.000000
  111        6.422735   1.000000
  112        6.422735   1.000000
  113        6.483701   1.000000
  114        6.483701   1.000000
  115        6.532592   1.000000
  116        6.663163   1.000000
  117        6.663163   1.000000
  118        6.700919   1.000000
  119        6.700919   1.000000
  120        6.863590   1.000000
  121        6.863590   1.000000
  122        6.863590   1.000000
  123        6.863590   1.000000
  124        7.299412   1.000000
  125        7.476892   1.000018
  126        7.476892   1.000018
  127        7.625076   1.000958
  128        7.954582   1.010403
  129       10.440877  -0.000000
  130       10.499499  -0.000000
  131       10.499499  -0.000000
  132       11.354710  -0.000000
  133       11.354710  -0.000000
  134       11.669596  -0.000000
  135       11.669596  -0.000000
  136       11.814156  -0.000000
  137       12.208576  -0.000000
  138       12.208576  -0.000000
  139       12.884496  -0.000000
  140       12.884496  -0.000000
  141       12.884557  -0.000000
  142       12.884557  -0.000000
  143       13.111303  -0.000000
  144       13.111303  -0.000000
  145       13.173741  -0.000000
  146       13.173741  -0.000000
  147       13.173741  -0.000000
  148       13.173741  -0.000000
  149       13.294513  -0.000000
  150       13.294513  -0.000000
  151       13.569063  -0.000000
  152       13.569063  -0.000000
  153       13.609452   0.000000
  154       13.609452   0.000000
  155       13.766489   0.000000
  156       13.766489   0.000000
  157       13.766489   0.000000
  158       13.766489   0.000000
  159       13.907694   0.000000
  160       13.907694   0.000000
  161       13.993510   0.000000
  162       14.085643   0.000000
  163       14.085643   0.000000
  164       14.689422   0.000000
  165       14.767072   0.000000
  166       14.767109   0.000000
  167       14.981366   0.000000
  168       15.030498   0.000000
 
  0.0000000E+00  0.0000000E+00  0.3333333E+00  0.7407407E-01
    1       -7.150522   1.000000
    2       -6.616353   1.000000
    3       -5.580103   1.000000
    4       -5.580103   1.000000
    5       -5.580103   1.000000
    6       -5.580103   1.000000
    7       -5.095776   1.000000
    8       -5.095776   1.000000
    9       -5.095776   1.000000
   10       -5.095776   1.000000
   11       -4.577966   1.000000
   12       -4.222455   1.000000
   13       -4.222455   1.000000
   14       -4.222454   1.000000
   15       -4.222454   1.000000
   16       -3.962083   1.000000
   17       -3.962083   1.000000
   18       -3.962083   1.000000
   19       -3.962083   1.000000
   20       -3.389689   1.000000
   21       -3.389689   1.000000
   22       -3.389688   1.000000
   23       -3.389688   1.000000
   24       -3.234720   1.000000
   25       -2.512809   1.000000
   26       -2.512809   1.000000
   27       -2.512809   1.000000
   28       -2.512808   1.000000
   29       -2.307101   1.000000
   30       -2.307101   1.000000
   31       -2.194529   1.000000
   32       -2.194529   1.000000
   33       -0.015666   1.000000
   34       -0.015666   1.000000
   35       -0.015665   1.000000
   36       -0.015665   1.000000
   37        0.376352   1.000000
   38        0.376352   1.000000
   39        0.735861   1.000000
   40        0.735861   1.000000
   41        1.063963   1.000000
   42        1.063963   1.000000
   43        1.063963   1.000000
   44        1.063963   1.000000
   45        1.106195   1.000000
   46        1.106195   1.000000
   47        1.106195   1.000000
   48        1.106195   1.000000
   49        1.243117   1.000000
   50        1.405353   1.000000
   51        1.405353   1.000000