       N       E                     dE             d eps       ncg     rms          rms(c)
DAV:   1     0.671152363189E+03    0.67115E+03   -0.99666E+04  4704   0.111E+03
DAV:   2    -0.463141330038E+03   -0.11343E+04   -0.10759E+04  5816   0.221E+02
DAV:   3    -0.538390171795E+03   -0.75249E+02   -0.74574E+02  5680   0.561E+01
DAV:   4    -0.540047934825E+03   -0.16578E+01   -0.16509E+01  5720   0.899E+00
DAV:   5    -0.540093464174E+03   -0.45529E-01   -0.45459E-01  5552   0.142E+00    0.491E+01
DAV:   6    -0.483703348609E+03    0.56390E+02   -0.18974E+02  5336   0.234E+01    0.218E+01
DAV:   7    -0.482323587976E+03    0.13798E+01   -0.15340E+01  5928   0.692E+00    0.971E+00
DAV:   8    -0.482097564893E+03    0.22602E+00   -0.97887E-01  5304   0.192E+00    0.252E+00
DAV:   9    -0.482081861836E+03    0.15703E-01   -0.12888E-01  5456   0.763E-01    0.413E-01
DAV:  10    -0.482085593332E+03   -0.37315E-02   -0.11936E-02  5432   0.219E-01    0.203E-01
DAV:  11    -0.482086083987E+03   -0.49066E-03   -0.16241E-03  5168   0.100E-01    0.483E-02
DAV:  12    -0.482086104825E+03   -0.20838E-04   -0.79767E-05  5464   0.197E-02    0.170E-02
DAV:  13    -0.482086110300E+03   -0.54749E-05   -0.32152E-06  5704   0.397E-03    0.341E-03
DAV:  14    -0.482086112135E+03   -0.18346E-05   -0.39547E-07  6168   0.153E-03    0.225E-03
DAV:  15    -0.482086112731E+03   -0.59618E-06   -0.11023E-07  5272   0.811E-04    0.192E-03
DAV:  16    -0.482086112827E+03   -0.96104E-07   -0.19461E-08  3272   0.375E-04    0.153E-03
DAV:  17    -0.482086112382E+03    0.44475E-06   -0.20312E-08  2760   0.294E-04    0.200E-04
DAV:  18    -0.482086112397E+03   -0.14206E-07   -0.26893E-09  2704   0.138E-04    0.170E-04
DAV:  19    -0.482086112390E+03    0.69995E-08   -0.29711E-10  2688   0.631E-05
   1 F= -.48208611E+03 E0= -.48208912E+03  d E =0.902897E-02
