       N       E                     dE             d eps       ncg     rms          rms(c)
DAV:   1     0.668743984376E+03    0.66874E+03   -0.99549E+04  4704   0.111E+03
DAV:   2    -0.463431181209E+03   -0.11322E+04   -0.10720E+04  5840   0.221E+02
DAV:   3    -0.538109631697E+03   -0.74678E+02   -0.73992E+02  5688   0.559E+01
DAV:   4    -0.539750458600E+03   -0.16408E+01   -0.16340E+01  5704   0.899E+00
DAV:   5    -0.539795463508E+03   -0.45005E-01   -0.44934E-01  5552   0.142E+00    0.491E+01
DAV:   6    -0.483252892349E+03    0.56543E+02   -0.19001E+02  5352   0.234E+01    0.218E+01
DAV:   7    -0.481886454162E+03    0.13664E+01   -0.15565E+01  5872   0.698E+00    0.972E+00
DAV:   8    -0.481659694885E+03    0.22676E+00   -0.99985E-01  5416   0.194E+00    0.257E+00
DAV:   9    -0.481643438576E+03    0.16256E-01   -0.13562E-01  5432   0.789E-01    0.423E-01
DAV:  10    -0.481646787758E+03   -0.33492E-02   -0.12357E-02  5696   0.237E-01    0.222E-01
DAV:  11    -0.481647594607E+03   -0.80685E-03   -0.16533E-03  5120   0.104E-01    0.683E-02
DAV:  12    -0.481647590232E+03    0.43746E-05   -0.22767E-04  5680   0.353E-02    0.347E-02
DAV:  13    -0.481647597170E+03   -0.69379E-05   -0.51392E-05  5216   0.180E-02    0.104E-02
DAV:  14    -0.481647604487E+03   -0.73166E-05   -0.71264E-06  5368   0.513E-03    0.484E-03
DAV:  15    -0.481647606008E+03   -0.15212E-05   -0.92836E-07  5544   0.229E-03    0.346E-03
DAV:  16    -0.481647605919E+03    0.89436E-07   -0.47330E-08  5512   0.595E-04    0.161E-03
DAV:  17    -0.481647605939E+03   -0.20231E-07   -0.39327E-08  4160   0.432E-04    0.603E-04
DAV:  18    -0.481647605919E+03    0.20103E-07   -0.47581E-09  2752   0.183E-04    0.259E-04
DAV:  19    -0.481647605901E+03    0.18059E-07   -0.13266E-09  2696   0.865E-05    0.704E-05
DAV:  20    -0.481647605898E+03    0.29286E-08   -0.19014E-10  2688   0.373E-05
   1 F= -.48164761E+03 E0= -.48165075E+03  d E =0.942260E-02
