<?xml version="1.0" encoding="ISO-8859-1"?>
<modeling>
 <generator>
  <i name="program" type="string">vasp </i>
  <i name="version" type="string">6.2.1  </i>
  <i name="subversion" type="string">16May21 (build Jun 06 2020 10:27:25) complex                          parallel </i>
  <i name="platform" type="string">LinuxIFC </i>
  <i name="date" type="string">2024 01 25 </i>
  <i name="time" type="string">17:15:28 </i>
 </generator>
 <incar>
  <i type="int" name="NELM">    60</i>
  <i type="int" name="IBRION">     1</i>
  <i name="EDIFF">      0.00000001</i>
  <i type="int" name="NSW">     0</i>
  <i type="int" name="ISIF">     3</i>
  <i type="int" name="ISYM">     0</i>
  <i type="logical" name="LWAVE"> F  </i>
  <i type="logical" name="LCHARG"> F  </i>
  <i type="string" name="GGA">PE</i>
 </incar>
 <primitive_cell>
  <structure name="primitive_cell" >
   <crystal>
    <varray name="basis" >
     <v>       8.74331558       0.00000000       0.00000000 </v>
     <v>       0.00000000       8.74331558       0.00000000 </v>
     <v>       0.00000000       0.00000000       8.74331558 </v>
    </varray>
    <i name="volume">    668.38771987 </i>
    <varray name="rec_basis" >
     <v>       0.11437309       0.00000000       0.00000000 </v>
     <v>       0.00000000       0.11437309       0.00000000 </v>
     <v>       0.00000000       0.00000000       0.11437309 </v>
    </varray>
   </crystal>
   <varray name="positions" >
    <v>       0.12464202       0.12452104       0.12430840 </v>
    <v>       0.12714060       0.37785248       0.37491822 </v>
    <v>       0.37415520       0.12223625       0.37343938 </v>
    <v>       0.37639184       0.37689443       0.12249217 </v>
    <v>       0.12373268       0.12723627       0.62338292 </v>
    <v>       0.12709031       0.37059020       0.87603320 </v>
    <v>       0.37473409       0.12554218       0.87407701 </v>
    <v>       0.37708875       0.37428710       0.62547956 </v>
    <v>       0.12668159       0.62545784       0.12777695 </v>
    <v>       0.12563397       0.87342779       0.37576433 </v>
    <v>       0.37448256       0.62291139       0.37443922 </v>
    <v>       0.37768716       0.87427558       0.12479600 </v>
    <v>       0.12404711       0.62362659       0.62276059 </v>
    <v>       0.12280282       0.87201578       0.87427053 </v>
    <v>       0.37557653       0.62329052       0.87378073 </v>
    <v>       0.37699734       0.87537063       0.62548424 </v>
    <v>       0.62658133       0.12625772       0.12791652 </v>
    <v>       0.62446042       0.37820055       0.37256988 </v>
    <v>       0.87513446       0.12444776       0.37780251 </v>
    <v>       0.87286262       0.37383169       0.12305742 </v>
    <v>       0.62500740       0.12727058       0.62286248 </v>
    <v>       0.62415740       0.37639509       0.87313350 </v>
    <v>       0.87617647       0.12092628       0.87366947 </v>
    <v>       0.87662004       0.37526675       0.62287041 </v>
    <v>       0.62652805       0.62527347       0.12465050 </v>
    <v>       0.62619108       0.87498412       0.37439582 </v>
    <v>       0.87383992       0.62520380       0.37327555 </v>
    <v>       0.87622700       0.87203465       0.12624536 </v>
    <v>       0.62475907       0.62530991       0.62615231 </v>
    <v>       0.62345159       0.87506571       0.87650132 </v>
    <v>       0.87576413       0.62695775       0.87462829 </v>
    <v>       0.87537312       0.87531285       0.62512917 </v>
    <v>       0.00068780       0.00198263       0.99889492 </v>
    <v>       0.00084688       0.24972912       0.25307694 </v>
    <v>       0.24942227       0.99662432       0.25081740 </v>
    <v>       0.25173211       0.24905485       0.99848620 </v>
    <v>       0.99970081       0.00184010       0.50237924 </v>
    <v>       0.00087895       0.24846549       0.75015303 </v>
    <v>       0.25287476       0.00095502       0.75054334 </v>
    <v>       0.24900614       0.25143531       0.49987462 </v>
    <v>       0.99902160       0.50021858       0.99984590 </v>
    <v>       0.99978903       0.75195708       0.25007264 </v>
    <v>       0.24695952       0.50174149       0.25068692 </v>
    <v>       0.25428648       0.74984719       0.00114828 </v>
    <v>       0.00219539       0.50037577       0.49730380 </v>
    <v>       0.00247102       0.75111349       0.74799219 </v>
    <v>       0.24967103       0.49779019       0.75030234 </v>
    <v>       0.25120483       0.75161943       0.50270835 </v>
    <v>       0.49927300       0.00050965       0.00118813 </v>
    <v>       0.50269537       0.24819024       0.25000559 </v>
    <v>       0.75209484       0.00031220       0.25025412 </v>
    <v>       0.75134435       0.24999743       0.00094948 </v>
    <v>       0.50180024       0.99825420       0.50018823 </v>
    <v>       0.49935991       0.25144939       0.75029384 </v>
    <v>       0.74976147       0.00020214       0.74794421 </v>
    <v>       0.75080894       0.24774178       0.49987903 </v>
    <v>       0.49847707       0.49831866       0.00079621 </v>
    <v>       0.49998418       0.75180391       0.25179464 </v>
    <v>       0.74993303       0.50245634       0.25075809 </v>
    <v>       0.75163588       0.74979274       0.00098010 </v>
    <v>       0.50072711       0.49938425       0.49965510 </v>
    <v>       0.49945889       0.75072697       0.75152893 </v>
    <v>       0.74952623       0.49808867       0.74776725 </v>
    <v>       0.75231132       0.74993629       0.50186439 </v>
   </varray>
  </structure>
  <varray name="primitive_index" >
   <v type="int" >        1 </v>
   <v type="int" >        2 </v>
   <v type="int" >        3 </v>
   <v type="int" >        4 </v>
   <v type="int" >        5 </v>
   <v type="int" >        6 </v>
   <v type="int" >        7 </v>
   <v type="int" >        8 </v>
   <v type="int" >        9 </v>
   <v type="int" >       10 </v>
   <v type="int" >       11 </v>
   <v type="int" >       12 </v>
   <v type="int" >       13 </v>
   <v type="int" >       14 </v>
   <v type="int" >       15 </v>
   <v type="int" >       16 </v>
   <v type="int" >       17 </v>
   <v type="int" >       18 </v>
   <v type="int" >       19 </v>
   <v type="int" >       20 </v>
   <v type="int" >       21 </v>
   <v type="int" >       22 </v>
   <v type="int" >       23 </v>
   <v type="int" >       24 </v>
   <v type="int" >       25 </v>
   <v type="int" >       26 </v>
   <v type="int" >       27 </v>
   <v type="int" >       28 </v>
   <v type="int" >       29 </v>
   <v type="int" >       30 </v>
   <v type="int" >       31 </v>
   <v type="int" >       32 </v>
   <v type="int" >       33 </v>
   <v type="int" >       34 </v>
   <v type="int" >       35 </v>
   <v type="int" >       36 </v>
   <v type="int" >       37 </v>
   <v type="int" >       38 </v>
   <v type="int" >       39 </v>
   <v type="int" >       40 </v>
   <v type="int" >       41 </v>
   <v type="int" >       42 </v>
   <v type="int" >       43 </v>
   <v type="int" >       44 </v>
   <v type="int" >       45 </v>
   <v type="int" >       46 </v>
   <v type="int" >       47 </v>
   <v type="int" >       48 </v>
   <v type="int" >       49 </v>
   <v type="int" >       50 </v>
   <v type="int" >       51 </v>
   <v type="int" >       52 </v>
   <v type="int" >       53 </v>
   <v type="int" >       54 </v>
   <v type="int" >       55 </v>
   <v type="int" >       56 </v>
   <v type="int" >       57 </v>
   <v type="int" >       58 </v>
   <v type="int" >       59 </v>
   <v type="int" >       60 </v>
   <v type="int" >       61 </v>
   <v type="int" >       62 </v>
   <v type="int" >       63 </v>
   <v type="int" >       64 </v>
  </varray>
 </primitive_cell>
 <kpoints>
  <generation param="Monkhorst-Pack">
   <v type="int" name="divisions">       3        3        3 </v>
   <v name="usershift">      0.00000000       0.00000000       0.00000000 </v>
   <v name="genvec1">      0.33333333       0.00000000       0.00000000 </v>
   <v name="genvec2">      0.00000000       0.33333333       0.00000000 </v>
   <v name="genvec3">      0.00000000       0.00000000       0.33333333 </v>
   <v name="shift">      0.00000000       0.00000000       0.00000000 </v>
  </generation>
  <varray name="kpointlist" >
   <v>       0.00000000       0.00000000       0.00000000 </v>
   <v>       0.33333333       0.00000000       0.00000000 </v>
   <v>       0.00000000       0.33333333       0.00000000 </v>
   <v>       0.00000000       0.00000000       0.33333333 </v>
   <v>       0.33333333       0.33333333       0.00000000 </v>
   <v>       0.00000000       0.33333333       0.33333333 </v>
   <v>       0.33333333       0.00000000       0.33333333 </v>
   <v>      -0.33333333       0.33333333       0.00000000 </v>
   <v>      -0.33333333       0.00000000       0.33333333 </v>
   <v>       0.00000000      -0.33333333       0.33333333 </v>
   <v>       0.33333333       0.33333333       0.33333333 </v>
   <v>      -0.33333333       0.33333333       0.33333333 </v>
   <v>      -0.33333333      -0.33333333       0.33333333 </v>
   <v>       0.33333333      -0.33333333       0.33333333 </v>
  </varray>
  <varray name="weights" >
   <v>       0.03703704 </v>
   <v>       0.07407407 </v>
   <v>       0.07407407 </v>
   <v>       0.07407407 </v>
   <v>       0.07407407 </v>
   <v>       0.07407407 </v>
   <v>       0.07407407 </v>
   <v>       0.07407407 </v>
   <v>       0.07407407 </v>
   <v>       0.07407407 </v>
   <v>       0.07407407 </v>
   <v>       0.07407407 </v>
   <v>       0.07407407 </v>
   <v>       0.07407407 </v>
  </varray>
 </kpoints>
 <parameters>
  <separator name="general" >
   <i type="string" name="SYSTEM">unknown system</i>
   <i type="logical" name="LCOMPAT"> F  </i>
  </separator>
  <separator name="electronic" >
   <i type="string" name="PREC">normal</i>
   <i name="ENMAX">    400.00000000</i>
   <i name="ENAUG">    644.87300000</i>
   <i name="EDIFF">      0.00000001</i>
   <i type="int" name="IALGO">    38</i>
   <i type="int" name="IWAVPR">    10</i>
   <i type="int" name="NBANDS">   168</i>
   <i type="int" name="NBANDSLOW">    -1</i>
   <i type="int" name="NBANDSHIGH">    -1</i>
   <i name="NELECT">    256.00000000</i>
   <i type="int" name="TURBO">     0</i>
   <i type="int" name="IRESTART">     0</i>
   <i type="int" name="NREBOOT">     0</i>
   <i type="int" name="NMIN">     0</i>
   <i name="EREF">      0.00000000</i>
   <separator name="electronic smearing" >
    <i type="int" name="ISMEAR">     1</i>
    <i name="SIGMA">      0.20000000</i>
    <i name="KSPACING">      0.50000000</i>
    <i type="logical" name="KGAMMA"> T  </i>
    <i type="logical" name="KBLOWUP"> T  </i>
   </separator>
   <separator name="electronic projectors" >
    <i type="logical" name="LREAL"> F  </i>
    <v name="ROPT">      0.00000000      0.00000000</v>
    <i type="int" name="LMAXPAW">  -100</i>
    <i type="int" name="LMAXMIX">     2</i>
    <i type="logical" name="NLSPLINE"> F  </i>
   </separator>
   <separator name="electronic startup" >
    <i type="int" name="ISTART">     0</i>
    <i type="int" name="ICHARG">     2</i>
    <i type="int" name="INIWAV">     1</i>
   </separator>
   <separator name="electronic spin" >
    <i type="int" name="ISPIN">     1</i>
    <i type="logical" name="LNONCOLLINEAR"> F  </i>
    <v name="MAGMOM">      1.00000000      1.00000000      1.00000000      1.00000000      1.00000000      1.00000000      1.00000000      1.00000000      1.00000000      1.00000000      1.00000000      1.00000000      1.00000000      1.00000000      1.00000000      1.00000000      1.00000000      1.00000000      1.00000000      1.00000000
      1.00000000      1.00000000      1.00000000      1.00000000      1.00000000      1.00000000      1.00000000      1.00000000      1.00000000      1.00000000      1.00000000      1.00000000      1.00000000      1.00000000      1.00000000      1.00000000      1.00000000      1.00000000      1.00000000      1.00000000
      1.00000000      1.00000000      1.00000000      1.00000000      1.00000000      1.00000000      1.00000000      1.00000000      1.00000000      1.00000000      1.00000000      1.00000000      1.00000000      1.00000000      1.00000000      1.00000000      1.00000000      1.00000000      1.00000000      1.00000000
      1.00000000      1.00000000      1.00000000      1.00000000</v>
    <i name="NUPDOWN">     -1.00000000</i>
    <i type="logical" name="LSORBIT"> F  </i>
    <v name="SAXIS">      0.00000000      0.00000000      1.00000000</v>
    <i type="logical" name="LSPIRAL"> F  </i>
    <v name="QSPIRAL">      0.00000000      0.00000000      0.00000000</v>
    <i type="logical" name="LZEROZ"> F  </i>
   </separator>
   <separator name="electronic exchange-correlation" >
    <i type="logical" name="LASPH"> F  </i>
    <i type="logical" name="LMETAGGA"> F  </i>
   </separator>
   <separator name="electronic convergence" >
    <i type="int" name="NELM">    60</i>
    <i type="int" name="NELMDL">    -5</i>
    <i type="int" name="NELMIN">     2</i>
    <i name="ENINI">    400.00000000</i>
    <separator name="electronic convergence detail" >
     <i type="logical" name="LDIAG"> T  </i>
     <i type="logical" name="LSUBROT"> F  </i>
     <i name="WEIMIN">      0.00000000</i>
     <i name="EBREAK">      0.00000000</i>
     <i name="DEPER">      0.30000000</i>
     <i type="int" name="NRMM">     4</i>
     <i name="TIME">      0.40000000</i>
    </separator>
   </separator>
   <separator name="electronic mixer" >
    <i name="AMIX">      0.40000000</i>
    <i name="BMIX">      1.00000000</i>
    <i name="AMIN">      0.10000000</i>
    <i name="AMIX_MAG">      1.60000000</i>
    <i name="BMIX_MAG">      1.00000000</i>
    <separator name="electronic mixer details" >
     <i type="int" name="IMIX">     4</i>
     <i type="logical" name="MIXFIRST"> F  </i>
     <i type="int" name="MAXMIX">   -45</i>
     <i name="WC">    100.00000000</i>
     <i type="int" name="INIMIX">     1</i>
     <i type="int" name="MIXPRE">     1</i>
     <i type="int" name="MREMOVE">     5</i>
    </separator>
   </separator>
   <separator name="electronic dipolcorrection" >
    <i type="logical" name="LDIPOL"> F  </i>
    <i type="logical" name="LMONO"> F  </i>
    <i type="int" name="IDIPOL">     0</i>
    <i name="EPSILON">      1.00000000</i>
    <v name="DIPOL">   -100.00000000   -100.00000000   -100.00000000</v>
    <i name="EFIELD">      0.00000000</i>
   </separator>
  </separator>
  <separator name="grids" >
   <i type="int" name="NGX">    48</i>
   <i type="int" name="NGY">    48</i>
   <i type="int" name="NGZ">    48</i>
   <i type="int" name="NGXF">    96</i>
   <i type="int" name="NGYF">    96</i>
   <i type="int" name="NGZF">    96</i>
   <i type="logical" name="ADDGRID"> F  </i>
  </separator>
  <separator name="ionic" >
   <i type="int" name="NSW">     0</i>
   <i type="int" name="IBRION">    -1</i>
   <i type="int" name="MDALGO">     0</i>
   <i type="int" name="ISIF">     3</i>
   <i name="PSTRESS">      0.00000000</i>
   <i name="EDIFFG">      0.00000010</i>
   <i type="int" name="NFREE">     0</i>
   <i name="POTIM">      0.50000000</i>
   <i name="SMASS">     -3.00000000</i>
   <i name="SCALEE">      1.00000000</i>
  </separator>
  <separator name="ionic md" >
   <i name="TEBEG">      0.00010000</i>
   <i name="TEEND">      0.00010000</i>
   <i type="int" name="NBLOCK">     1</i>
   <i type="int" name="KBLOCK">     1</i>
   <i type="int" name="NPACO">   256</i>
   <i name="APACO">     16.00000000</i>
  </separator>
  <separator name="symmetry" >
   <i type="int" name="ISYM">     0</i>
   <i name="SYMPREC">      0.00001000</i>
  </separator>
  <separator name="dos" >
   <i type="int" name="LORBIT">     0</i>
   <v name="RWIGS">     -1.00000000     -1.00000000</v>
   <i type="int" name="NEDOS">   301</i>
   <i name="EMIN">     10.00000000</i>
   <i name="EMAX">    -10.00000000</i>
   <i name="EFERMI">      0.00000000</i>
  </separator>
  <separator name="writing" >
   <i type="int" name="NWRITE">     2</i>
   <i type="logical" name="LWAVE"> F  </i>
   <i type="logical" name="LDOWNSAMPLE"> F  </i>
   <i type="logical" name="LCHARG"> F  </i>
   <i type="logical" name="LPARD"> F  </i>
   <i type="logical" name="LVTOT"> F  </i>
   <i type="logical" name="LVHAR"> F  </i>
   <i type="logical" name="LELF"> F  </i>
   <i type="logical" name="LOPTICS"> F  </i>
   <v name="STM">      0.00000000      0.00000000      0.00000000      0.00000000      0.00000000      0.00000000      0.00000000</v>
  </separator>
  <separator name="performance" >
   <i type="int" name="NPAR">     8</i>
   <i type="int" name="NSIM">     4</i>
   <i type="int" name="NBLK">    -1</i>
   <i type="logical" name="LPLANE"> T  </i>
   <i type="logical" name="LSCALAPACK"> T  </i>
   <i type="logical" name="LSCAAWARE"> F  </i>
   <i type="logical" name="LSCALU"> F  </i>
   <i type="logical" name="LASYNC"> F  </i>
   <i type="logical" name="LORBITALREAL"> F  </i>
  </separator>
  <separator name="miscellaneous" >
   <i type="int" name="IDIOT">     3</i>
   <i type="int" name="PHON_NSTRUCT">    -1</i>
   <i type="logical" name="LMUSIC"> F  </i>
   <v name="POMASS">     12.01100000     28.08500000</v>
   <v name="DARWINR">      0.00000000      0.00000000</v>
   <v name="DARWINV">      1.00000000      1.00000000</v>
   <i type="logical" name="LCORR"> T  </i>
  </separator>
  <i type="logical" name="GGA_COMPAT"> T  </i>
  <i type="logical" name="LBERRY"> F  </i>
  <i type="int" name="ICORELEVEL">     0</i>
  <i type="logical" name="LDAU"> F  </i>
  <i type="int" name="I_CONSTRAINED_M">     0</i>
  <separator name="electronic exchange-correlation" >
   <i type="string" name="GGA">PE</i>
   <i type="int" name="VOSKOWN">     0</i>
   <i type="logical" name="LHFCALC"> F  </i>
   <i type="string" name="PRECFOCK"></i>
   <i type="logical" name="LSYMGRAD"> F  </i>
   <i type="logical" name="LHFONE"> F  </i>
   <i type="logical" name="LRHFCALC"> F  </i>
   <i type="logical" name="LTHOMAS"> F  </i>
   <i type="logical" name="LMODELHF"> F  </i>
   <i type="logical" name="LFOCKACE"> F  </i>
   <i name="ENCUT4O">     -1.00000000</i>
   <i type="int" name="EXXOEP">     0</i>
   <i type="int" name="FOURORBIT">     0</i>
   <i name="AEXX">      0.00000000</i>
   <i name="HFALPHA">      0.00000000</i>
   <i name="MCALPHA">      0.00000000</i>
   <i name="ALDAX">      1.00000000</i>
   <i name="AGGAX">      1.00000000</i>
   <i name="ALDAC">      1.00000000</i>
   <i name="AGGAC">      1.00000000</i>
   <i type="int" name="NKREDX">     1</i>
   <i type="int" name="NKREDY">     1</i>
   <i type="int" name="NKREDZ">     1</i>
   <i type="logical" name="SHIFTRED"> F  </i>
   <i type="logical" name="ODDONLY"> F  </i>
   <i type="logical" name="EVENONLY"> F  </i>
   <i type="int" name="LMAXFOCK">     0</i>
   <i type="int" name="NMAXFOCKAE">     0</i>
   <i type="logical" name="LFOCKAEDFT"> F  </i>
   <i name="HFSCREEN">      0.00000000</i>
   <i name="HFSCREENC">      0.00000000</i>
   <i type="int" name="NBANDSGWLOW">     0</i>
  </separator>
  <separator name="vdW DFT" >
   <i type="logical" name="LUSE_VDW"> F  </i>
   <i name="Zab_VDW">     -0.84910000</i>
   <i name="PARAM1">      0.12340000</i>
   <i name="PARAM2">      1.00000000</i>
   <i name="PARAM3">      0.00000000</i>
  </separator>
  <separator name="model GW" >
   <i type="int" name="MODEL_GW">     0</i>
   <i name="MODEL_EPS0">      6.26613487</i>
   <i name="MODEL_ALPHA">      1.00000000</i>
  </separator>
  <separator name="linear response parameters" >
   <i type="logical" name="LEPSILON"> F  </i>
   <i type="logical" name="LRPA"> F  </i>
   <i type="logical" name="LNABLA"> F  </i>
   <i type="logical" name="LVEL"> F  </i>
   <i type="int" name="KINTER">     0</i>
   <i name="CSHIFT">      0.10000000</i>
   <i name="OMEGAMAX">     -1.00000000</i>
   <i name="DEG_THRESHOLD">      0.00200000</i>
   <i name="RTIME">     -0.10000000</i>
   <i name="WPLASMAI">      0.00000000</i>
   <v name="DFIELD">      0.00000000      0.00000000      0.00000000</v>
   <v name="WPLASMA">      0.00000000      0.00000000      0.00000000      0.00000000      0.00000000      0.00000000      0.00000000      0.00000000      0.00000000</v>
  </separator>
  <separator name="orbital magnetization" >
   <i type="logical" name="NUCIND"> F  </i>
   <v name="MAGPOS">      0.00000000      0.00000000      0.00000000</v>
   <i type="logical" name="LNICSALL"> T  </i>
   <i type="logical" name="ORBITALMAG"> F  </i>
   <i type="logical" name="LMAGBLOCH"> F  </i>
   <i type="logical" name="LCHIMAG"> F  </i>
   <i type="logical" name="LGAUGE"> T  </i>
   <i type="int" name="MAGATOM">     0</i>
   <v name="MAGDIPOL">      0.00000000      0.00000000      0.00000000</v>
   <v name="AVECCONST">      0.00000000      0.00000000      0.00000000</v>
  </separator>
  <separator name="response functions" >
   <i type="logical" name="LFINITE_TEMPERATURE"> F  </i>
   <i type="logical" name="LADDER"> F  </i>
   <i type="logical" name="LRPAFORCE"> F  </i>
   <i type="logical" name="LFXC"> F  </i>
   <i type="logical" name="LHARTREE"> T  </i>
   <i type="int" name="IBSE">     0</i>
   <v type="int" name="KPOINT">    -1     0     0     0</v>
   <i type="logical" name="LTCTC"> F  </i>
   <i type="logical" name="LTCTE"> F  </i>
   <i type="logical" name="LTETE"> F  </i>
   <i type="logical" name="LTRIPLET"> F  </i>
   <i type="logical" name="LFXCEPS"> F  </i>
   <i type="logical" name="LFXHEG"> F  </i>
   <i type="int" name="NATURALO">     2</i>
   <i type="logical" name="LHOLEGF"> F  </i>
   <i type="logical" name="L2ORDER"> F  </i>
   <i type="logical" name="LDMP1"> F  </i>
   <i type="logical" name="LMP2LT"> F  </i>
   <i type="logical" name="LSMP2LT"> F  </i>
   <i type="logical" name="LGWLF"> F  </i>
   <i name="ENCUTGW">     -2.00000000</i>
   <i name="ENCUTGWSOFT">     -2.00000000</i>
   <i name="ENCUTLF">     -1.00000000</i>
   <i type="logical" name="LESF_SPLINES"> F  </i>
   <i type="int" name="LMAXMP2">    -1</i>
   <i name="SCISSOR">      0.00000000</i>
   <i type="int" name="NOMEGA">     0</i>
   <i type="int" name="NOMEGAR">     0</i>
   <i type="int" name="NBANDSGW">    -1</i>
   <i type="int" name="NBANDSO">    -1</i>
   <i type="int" name="NBANDSV">    -1</i>
   <i type="int" name="NELM">    60</i>
   <i type="int" name="NELMHF">     1</i>
   <i type="int" name="DIM">     3</i>
   <i type="int" name="IESPILON">     4</i>
   <i type="int" name="ANTIRES">     0</i>
   <i name="OMEGAMAX">    -30.00000000</i>
   <i name="OMEGAMIN">    -30.00000000</i>
   <i name="OMEGATL">   -200.00000000</i>
   <i type="int" name="OMEGAGRID">     0</i>
   <i name="CSHIFT">     -0.10000000</i>
   <i type="logical" name="LSELFENERGY"> F  </i>
   <i type="logical" name="LSPECTRAL"> F  </i>
   <i type="logical" name="LSPECTRALGW"> F  </i>
   <i type="logical" name="LSINGLES"> F  </i>
   <i type="logical" name="LFERMIGW"> F  </i>
   <i type="logical" name="ODDONLYGW"> F  </i>
   <i type="logical" name="EVENONLYGW"> F  </i>
   <i type="int" name="NKREDLFX">     1</i>
   <i type="int" name="NKREDLFY">     1</i>
   <i type="int" name="NKREDLFZ">     1</i>
   <i type="int" name="MAXMEM">  2800</i>
   <i type="int" name="TELESCOPE">     0</i>
   <i type="int" name="NTAUPAR">    -1</i>
   <i type="int" name="NOMEGAPAR">    -1</i>
   <i name="DAMP_NEWTON">      0.80000001</i>
   <i name="LAMBDA">      1.00000000</i>
  </separator>
  <separator name="External order field" >
   <i name="OFIELD_KAPPA">      0.00000000</i>
   <v name="OFIELD_K">      0.00000000      0.00000000      0.00000000</v>
   <i name="OFIELD_Q6_NEAR">      0.00000000</i>
   <i name="OFIELD_Q6_FAR">      0.00000000</i>
   <i name="OFIELD_A">      0.00000000</i>
  </separator>
 </parameters>
 <atominfo>
  <atoms>      64 </atoms>
  <types>       2 </types>
  <array name="atoms" >
   <dimension dim="1">ion</dimension>
   <field type="string">element</field>
   <field type="int">atomtype</field>
   <set>
    <rc><c>C </c><c>   1</c></rc>
    <rc><c>C </c><c>   1</c></rc>
    <rc><c>C </c><c>   1</c></rc>
    <rc><c>C </c><c>   1</c></rc>
    <rc><c>C </c><c>   1</c></rc>
    <rc><c>C </c><c>   1</c></rc>
    <rc><c>C </c><c>   1</c></rc>
    <rc><c>C </c><c>   1</c></rc>
    <rc><c>C </c><c>   1</c></rc>
    <rc><c>C </c><c>   1</c></rc>
    <rc><c>C </c><c>   1</c></rc>
    <rc><c>C </c><c>   1</c></rc>
    <rc><c>C </c><c>   1</c></rc>
    <rc><c>C </c><c>   1</c></rc>
    <rc><c>C </c><c>   1</c></rc>
    <rc><c>C </c><c>   1</c></rc>
    <rc><c>C </c><c>   1</c></rc>
    <rc><c>C </c><c>   1</c></rc>
    <rc><c>C </c><c>   1</c></rc>
    <rc><c>C </c><c>   1</c></rc>
    <rc><c>C </c><c>   1</c></rc>
    <rc><c>C </c><c>   1</c></rc>
    <rc><c>C </c><c>   1</c></rc>
    <rc><c>C </c><c>   1</c></rc>
    <rc><c>C </c><c>   1</c></rc>
    <rc><c>C </c><c>   1</c></rc>
    <rc><c>C </c><c>   1</c></rc>
    <rc><c>C </c><c>   1</c></rc>
    <rc><c>C </c><c>   1</c></rc>
    <rc><c>C </c><c>   1</c></rc>
    <rc><c>C </c><c>   1</c></rc>
    <rc><c>C </c><c>   1</c></rc>
    <rc><c>Si</c><c>   2</c></rc>
    <rc><c>Si</c><c>   2</c></rc>
    <rc><c>Si</c><c>   2</c></rc>
    <rc><c>Si</c><c>   2</c></rc>
    <rc><c>Si</c><c>   2</c></rc>
    <rc><c>Si</c><c>   2</c></rc>
    <rc><c>Si</c><c>   2</c></rc>
    <rc><c>Si</c><c>   2</c></rc>
    <rc><c>Si</c><c>   2</c></rc>
    <rc><c>Si</c><c>   2</c></rc>
    <rc><c>Si</c><c>   2</c></rc>
    <rc><c>Si</c><c>   2</c></rc>
    <rc><c>Si</c><c>   2</c></rc>
    <rc><c>Si</c><c>   2</c></rc>
    <rc><c>Si</c><c>   2</c></rc>
    <rc><c>Si</c><c>   2</c></rc>
    <rc><c>Si</c><c>   2</c></rc>
    <rc><c>Si</c><c>   2</c></rc>
    <rc><c>Si</c><c>   2</c></rc>
    <rc><c>Si</c><c>   2</c></rc>
    <rc><c>Si</c><c>   2</c></rc>
    <rc><c>Si</c><c>   2</c></rc>
    <rc><c>Si</c><c>   2</c></rc>
    <rc><c>Si</c><c>   2</c></rc>
    <rc><c>Si</c><c>   2</c></rc>
    <rc><c>Si</c><c>   2</c></rc>
    <rc><c>Si</c><c>   2</c></rc>
    <rc><c>Si</c><c>   2</c></rc>
    <rc><c>Si</c><c>   2</c></rc>
    <rc><c>Si</c><c>   2</c></rc>
    <rc><c>Si</c><c>   2</c></rc>
    <rc><c>Si</c><c>   2</c></rc>
   </set>
  </array>
  <array name="atomtypes" >
   <dimension dim="1">type</dimension>
   <field type="int">atomspertype</field>
   <field type="string">element</field>
   <field>mass</field>
   <field>valence</field>
   <field type="string">pseudopotential</field>
   <set>
    <rc><c>  32</c><c>C </c><c>     12.01100000</c><c>      4.00000000</c><c>  PAW_PBE C 08Apr2002                   </c></rc>
    <rc><c>  32</c><c>Si</c><c>     28.08500000</c><c>      4.00000000</c><c>  PAW_PBE Si 05Jan2001                  </c></rc>
   </set>
  </array>
 </atominfo>
 <structure name="initialpos" >
  <crystal>
   <varray name="basis" >
    <v>       8.74331558       0.00000000       0.00000000 </v>
    <v>       0.00000000       8.74331558       0.00000000 </v>
    <v>       0.00000000       0.00000000       8.74331558 </v>
   </varray>
   <i name="volume">    668.38771987 </i>
   <varray name="rec_basis" >
    <v>       0.11437309       0.00000000       0.00000000 </v>
    <v>       0.00000000       0.11437309       0.00000000 </v>
    <v>       0.00000000       0.00000000       0.11437309 </v>
   </varray>
  </crystal>
  <varray name="positions" >
   <v>       0.12464202       0.12452104       0.12430840 </v>
   <v>       0.12714060       0.37785248       0.37491822 </v>
   <v>       0.37415520       0.12223625       0.37343938 </v>
   <v>       0.37639184       0.37689443       0.12249217 </v>
   <v>       0.12373268       0.12723627       0.62338292 </v>
   <v>       0.12709031       0.37059020       0.87603320 </v>
   <v>       0.37473409       0.12554218       0.87407701 </v>
   <v>       0.37708875       0.37428710       0.62547956 </v>
   <v>       0.12668159       0.62545784       0.12777695 </v>
   <v>       0.12563397       0.87342779       0.37576433 </v>
   <v>       0.37448256       0.62291139       0.37443922 </v>
   <v>       0.37768716       0.87427558       0.12479600 </v>
   <v>       0.12404711       0.62362659       0.62276059 </v>
   <v>       0.12280282       0.87201578       0.87427053 </v>
   <v>       0.37557653       0.62329052       0.87378073 </v>
   <v>       0.37699734       0.87537063       0.62548424 </v>
   <v>       0.62658133       0.12625772       0.12791652 </v>
   <v>       0.62446042       0.37820055       0.37256988 </v>
   <v>       0.87513446       0.12444776       0.37780251 </v>
   <v>       0.87286262       0.37383169       0.12305742 </v>
   <v>       0.62500740       0.12727058       0.62286248 </v>
   <v>       0.62415740       0.37639509       0.87313350 </v>
   <v>       0.87617647       0.12092628       0.87366947 </v>
   <v>       0.87662004       0.37526675       0.62287041 </v>
   <v>       0.62652805       0.62527347       0.12465050 </v>
   <v>       0.62619108       0.87498412       0.37439582 </v>
   <v>       0.87383992       0.62520380       0.37327555 </v>
   <v>       0.87622700       0.87203465       0.12624536 </v>
   <v>       0.62475907       0.62530991       0.62615231 </v>
   <v>       0.62345159       0.87506571       0.87650132 </v>
   <v>       0.87576413       0.62695775       0.87462829 </v>
   <v>       0.87537312       0.87531285       0.62512917 </v>
   <v>       0.00068780       0.00198263       0.99889492 </v>
   <v>       0.00084688       0.24972912       0.25307694 </v>
   <v>       0.24942227       0.99662432       0.25081740 </v>
   <v>       0.25173211       0.24905485       0.99848620 </v>
   <v>       0.99970081       0.00184010       0.50237924 </v>
   <v>       0.00087895       0.24846549       0.75015303 </v>
   <v>       0.25287476       0.00095502       0.75054334 </v>
   <v>       0.24900614       0.25143531       0.49987462 </v>
   <v>       0.99902160       0.50021858       0.99984590 </v>
   <v>       0.99978903       0.75195708       0.25007264 </v>
   <v>       0.24695952       0.50174149       0.25068692 </v>
   <v>       0.25428648       0.74984719       0.00114828 </v>
   <v>       0.00219539       0.50037577       0.49730380 </v>
   <v>       0.00247102       0.75111349       0.74799219 </v>
   <v>       0.24967103       0.49779019       0.75030234 </v>
   <v>       0.25120483       0.75161943       0.50270835 </v>
   <v>       0.49927300       0.00050965       0.00118813 </v>
   <v>       0.50269537       0.24819024       0.25000559 </v>
   <v>       0.75209484       0.00031220       0.25025412 </v>
   <v>       0.75134435       0.24999743       0.00094948 </v>
   <v>       0.50180024       0.99825420       0.50018823 </v>
   <v>       0.49935991       0.25144939       0.75029384 </v>
   <v>       0.74976147       0.00020214       0.74794421 </v>
   <v>       0.75080894       0.24774178       0.49987903 </v>
   <v>       0.49847707       0.49831866       0.00079621 </v>
   <v>       0.49998418       0.75180391       0.25179464 </v>
   <v>       0.74993303       0.50245634       0.25075809 </v>
   <v>       0.75163588       0.74979274       0.00098010 </v>
   <v>       0.50072711       0.49938425       0.49965510 </v>
   <v>       0.49945889       0.75072697       0.75152893 </v>
   <v>       0.74952623       0.49808867       0.74776725 </v>
   <v>       0.75231132       0.74993629       0.50186439 </v>
  </varray>
 </structure>
 <calculation>
  <scstep>
   <time name="dav">   15.42   15.45</time>
   <time name="total">   15.51   15.54</time>
   <energy>
    <i name="alphaZ">    354.85177120 </i>
    <i name="ewald">  -9082.84270341 </i>
    <i name="hartreedc">   -671.11254024 </i>
    <i name="XCdc">    145.83681557 </i>
    <i name="pawpsdc">   6292.66707184 </i>
    <i name="pawaedc">  -5747.90303932 </i>
    <i name="eentropy">      0.00783358 </i>
    <i name="bandstr">   1371.06373196 </i>
    <i name="atom">   8006.17504320 </i>
    <i name="e_fr_energy">    668.74398438 </i>
    <i name="e_wo_entrp">    668.73615080 </i>
    <i name="e_0_energy">    668.74137318 </i>
   </energy>
  </scstep>
  <scstep>
   <time name="dav">   24.91   24.99</time>
   <time name="total">   24.92   25.00</time>
   <energy>
    <i name="e_fr_energy">   -463.43118121 </i>
    <i name="e_wo_entrp">   -463.44668305 </i>
    <i name="e_0_energy">   -463.43634849 </i>
   </energy>
  </scstep>
  <scstep>
   <time name="dav">   19.85   20.43</time>
   <time name="total">   19.85   20.44</time>
   <energy>
    <i name="e_fr_energy">   -538.10963170 </i>
    <i name="e_wo_entrp">   -538.12925220 </i>
    <i name="e_0_energy">   -538.11617186 </i>
   </energy>
  </scstep>
  <scstep>
   <time name="dav">   18.00   18.12</time>
   <time name="total">   18.00   18.13</time>
   <energy>
    <i name="e_fr_energy">   -539.75045860 </i>
    <i name="e_wo_entrp">   -539.77066854 </i>
    <i name="e_0_energy">   -539.75719525 </i>
   </energy>
  </scstep>
  <scstep>
   <time name="dav">   16.01   16.14</time>
   <time name="total">   16.25   16.38</time>
   <energy>
    <i name="e_fr_energy">   -539.79546351 </i>
    <i name="e_wo_entrp">   -539.81567685 </i>
    <i name="e_0_energy">   -539.80220129 </i>
   </energy>
  </scstep>
  <scstep>
   <time name="dav">   15.44   15.47</time>
   <time name="total">   15.76   15.79</time>
   <energy>
    <i name="e_fr_energy">   -483.25289235 </i>
    <i name="e_wo_entrp">   -483.26323351 </i>
    <i name="e_0_energy">   -483.25633940 </i>
   </energy>
  </scstep>
  <scstep>
   <time name="dav">   17.20   17.34</time>
   <time name="total">   17.74   18.12</time>
   <energy>
    <i name="e_fr_energy">   -481.88645416 </i>
    <i name="e_wo_entrp">   -481.89579590 </i>
    <i name="e_0_energy">   -481.88956808 </i>
   </energy>
  </scstep>
  <scstep>
   <time name="dav">   15.34   15.37</time>
   <time name="total">   15.68   15.71</time>
   <energy>
    <i name="e_fr_energy">   -481.65969489 </i>
    <i name="e_wo_entrp">   -481.66922802 </i>
    <i name="e_0_energy">   -481.66287260 </i>
   </energy>
  </scstep>
  <scstep>
   <time name="dav">   16.57   16.61</time>
   <time name="total">   16.97   17.05</time>
   <energy>
    <i name="e_fr_energy">   -481.64343858 </i>
    <i name="e_wo_entrp">   -481.65286574 </i>
    <i name="e_0_energy">   -481.64658097 </i>
   </energy>
  </scstep>
  <scstep>
   <time name="dav">   15.78   15.81</time>
   <time name="total">   16.15   16.18</time>
   <energy>
    <i name="e_fr_energy">   -481.64678776 </i>
    <i name="e_wo_entrp">   -481.65620725 </i>
    <i name="e_0_energy">   -481.64992759 </i>
   </energy>
  </scstep>
  <scstep>
   <time name="dav">   18.28   18.35</time>
   <time name="total">   18.87   19.05</time>
   <energy>
    <i name="e_fr_energy">   -481.64759461 </i>
    <i name="e_wo_entrp">   -481.65701820 </i>
    <i name="e_0_energy">   -481.65073581 </i>
   </energy>
  </scstep>
  <scstep>
   <time name="dav">   15.75   15.78</time>
   <time name="total">   16.11   16.14</time>
   <energy>
    <i name="e_fr_energy">   -481.64759023 </i>
    <i name="e_wo_entrp">   -481.65701194 </i>
    <i name="e_0_energy">   -481.65073080 </i>
   </energy>
  </scstep>
  <scstep>
   <time name="dav">   14.42   14.45</time>
   <time name="total">   14.97   15.05</time>
   <energy>
    <i name="e_fr_energy">   -481.64759717 </i>
    <i name="e_wo_entrp">   -481.65701970 </i>
    <i name="e_0_energy">   -481.65073801 </i>
   </energy>
  </scstep>
  <scstep>
   <time name="dav">   14.73   14.76</time>
   <time name="total">   15.09   15.12</time>
   <energy>
    <i name="e_fr_energy">   -481.64760449 </i>
    <i name="e_wo_entrp">   -481.65702728 </i>
    <i name="e_0_energy">   -481.65074542 </i>
   </energy>
  </scstep>
  <scstep>
   <time name="dav">   14.87   14.90</time>
   <time name="total">   15.27   15.36</time>
   <energy>
    <i name="e_fr_energy">   -481.64760601 </i>
    <i name="e_wo_entrp">   -481.65702863 </i>
    <i name="e_0_energy">   -481.65074688 </i>
   </energy>
  </scstep>
  <scstep>
   <time name="dav">   14.79   14.82</time>
   <time name="total">   15.14   15.17</time>
   <energy>
    <i name="e_fr_energy">   -481.64760592 </i>
    <i name="e_wo_entrp">   -481.65702855 </i>
    <i name="e_0_energy">   -481.65074680 </i>
   </energy>
  </scstep>
  <scstep>
   <time name="dav">   12.07   12.09</time>
   <time name="total">   12.45   12.53</time>
   <energy>
    <i name="e_fr_energy">   -481.64760594 </i>
    <i name="e_wo_entrp">   -481.65702854 </i>
    <i name="e_0_energy">   -481.65074681 </i>
   </energy>
  </scstep>
  <scstep>
   <time name="dav">    9.09    9.10</time>
   <time name="total">    9.44    9.46</time>
   <energy>
    <i name="e_fr_energy">   -481.64760592 </i>
    <i name="e_wo_entrp">   -481.65702852 </i>
    <i name="e_0_energy">   -481.65074679 </i>
   </energy>
  </scstep>
  <scstep>
   <time name="dav">    8.97    8.99</time>
   <time name="total">    9.33    9.35</time>
   <energy>
    <i name="e_fr_energy">   -481.64760590 </i>
    <i name="e_wo_entrp">   -481.65702850 </i>
    <i name="e_0_energy">   -481.65074677 </i>
   </energy>
  </scstep>
  <scstep>
   <time name="dav">    8.96    8.98</time>
   <time name="total">    9.02    9.04</time>
   <energy>
    <i name="alphaZ">    354.85177120 </i>
    <i name="ewald">  -9082.84270341 </i>
    <i name="hartreedc">  -1023.79678254 </i>
    <i name="XCdc">    179.28464623 </i>
    <i name="pawpsdc">  33017.24060888 </i>
    <i name="pawaedc"> -32478.16784851 </i>
    <i name="eentropy">      0.00942260 </i>
    <i name="bandstr">    545.59823646 </i>
    <i name="atom">   8006.17504320 </i>
    <i name="e_fr_energy">   -481.64760590 </i>
    <i name="e_wo_entrp">   -481.65702850 </i>
    <i name="e_0_energy">   -481.65074676 </i>
   </energy>
  </scstep>
  <structure>
   <crystal>
    <varray name="basis" >
     <v>       8.74331558       0.00000000       0.00000000 </v>
     <v>       0.00000000       8.74331558       0.00000000 </v>
     <v>       0.00000000       0.00000000       8.74331558 </v>
    </varray>
    <i name="volume">    668.38771987 </i>
    <varray name="rec_basis" >
     <v>       0.11437309       0.00000000       0.00000000 </v>
     <v>       0.00000000       0.11437309       0.00000000 </v>
     <v>       0.00000000       0.00000000       0.11437309 </v>
    </varray>
   </crystal>
   <varray name="positions" >
    <v>       0.12464202       0.12452104       0.12430840 </v>
    <v>       0.12714060       0.37785248       0.37491822 </v>
    <v>       0.37415520       0.12223625       0.37343938 </v>
    <v>       0.37639184       0.37689443       0.12249217 </v>
    <v>       0.12373268       0.12723627       0.62338292 </v>
    <v>       0.12709031       0.37059020       0.87603320 </v>
    <v>       0.37473409       0.12554218       0.87407701 </v>
    <v>       0.37708875       0.37428710       0.62547956 </v>
    <v>       0.12668159       0.62545784       0.12777695 </v>
    <v>       0.12563397       0.87342779       0.37576433 </v>
    <v>       0.37448256       0.62291139       0.37443922 </v>
    <v>       0.37768716       0.87427558       0.12479600 </v>
    <v>       0.12404711       0.62362659       0.62276059 </v>
    <v>       0.12280282       0.87201578       0.87427053 </v>
    <v>       0.37557653       0.62329052       0.87378073 </v>
    <v>       0.37699734       0.87537063       0.62548424 </v>
    <v>       0.62658133       0.12625772       0.12791652 </v>
    <v>       0.62446042       0.37820055       0.37256988 </v>
    <v>       0.87513446       0.12444776       0.37780251 </v>
    <v>       0.87286262       0.37383169       0.12305742 </v>
    <v>       0.62500740       0.12727058       0.62286248 </v>
    <v>       0.62415740       0.37639509       0.87313350 </v>
    <v>       0.87617647       0.12092628       0.87366947 </v>
    <v>       0.87662004       0.37526675       0.62287041 </v>
    <v>       0.62652805       0.62527347       0.12465050 </v>
    <v>       0.62619108       0.87498412       0.37439582 </v>
    <v>       0.87383992       0.62520380       0.37327555 </v>
    <v>       0.87622700       0.87203465       0.12624536 </v>
    <v>       0.62475907       0.62530991       0.62615231 </v>
    <v>       0.62345159       0.87506571       0.87650132 </v>
    <v>       0.87576413       0.62695775       0.87462829 </v>
    <v>       0.87537312       0.87531285       0.62512917 </v>
    <v>       0.00068780       0.00198263       0.99889492 </v>
    <v>       0.00084688       0.24972912       0.25307694 </v>
    <v>       0.24942227       0.99662432       0.25081740 </v>
    <v>       0.25173211       0.24905485       0.99848620 </v>
    <v>       0.99970081       0.00184010       0.50237924 </v>
    <v>       0.00087895       0.24846549       0.75015303 </v>
    <v>       0.25287476       0.00095502       0.75054334 </v>
    <v>       0.24900614       0.25143531       0.49987462 </v>
    <v>       0.99902160       0.50021858       0.99984590 </v>
    <v>       0.99978903       0.75195708       0.25007264 </v>
    <v>       0.24695952       0.50174149       0.25068692 </v>
    <v>       0.25428648       0.74984719       0.00114828 </v>
    <v>       0.00219539       0.50037577       0.49730380 </v>
    <v>       0.00247102       0.75111349       0.74799219 </v>
    <v>       0.24967103       0.49779019       0.75030234 </v>
    <v>       0.25120483       0.75161943       0.50270835 </v>
    <v>       0.49927300       0.00050965       0.00118813 </v>
    <v>       0.50269537       0.24819024       0.25000559 </v>
    <v>       0.75209484       0.00031220       0.25025412 </v>
    <v>       0.75134435       0.24999743       0.00094948 </v>
    <v>       0.50180024       0.99825420       0.50018823 </v>
    <v>       0.49935991       0.25144939       0.75029384 </v>
    <v>       0.74976147       0.00020214       0.74794421 </v>
    <v>       0.75080894       0.24774178       0.49987903 </v>
    <v>       0.49847707       0.49831866       0.00079621 </v>
    <v>       0.49998418       0.75180391       0.25179464 </v>
    <v>       0.74993303       0.50245634       0.25075809 </v>
    <v>       0.75163588       0.74979274       0.00098010 </v>
    <v>       0.50072711       0.49938425       0.49965510 </v>
    <v>       0.49945889       0.75072697       0.75152893 </v>
    <v>       0.74952623       0.49808867       0.74776725 </v>
    <v>       0.75231132       0.74993629       0.50186439 </v>
   </varray>
  </structure>
  <varray name="forces" >
   <v>       0.25471575       0.01364251       0.29280813 </v>
   <v>      -0.34789278      -0.60479101      -0.06656817 </v>
   <v>       0.14688865       0.36414432       0.32639804 </v>
   <v>      -0.47492552      -0.68155722       0.70237533 </v>
   <v>       0.51623898      -0.37723188       0.35374724 </v>
   <v>      -0.50464527       0.68995934      -0.21310822 </v>
   <v>       0.34796503      -0.14996775       0.21786597 </v>
   <v>      -0.45750477       0.08365414      -0.23003132 </v>
   <v>      -0.41537083       0.15501199      -0.60115296 </v>
   <v>      -0.23145618       0.35454116       0.30438930 </v>
   <v>       0.06993710       0.59908498       0.33733684 </v>
   <v>      -0.39714409       0.22305363       0.16192190 </v>
   <v>       0.39758919       0.20132750       0.41367875 </v>
   <v>       1.01427152       0.70104599       0.20848748 </v>
   <v>      -0.18311956       0.16782921       0.17425787 </v>
   <v>      -0.13671039       0.06374756       0.12234184 </v>
   <v>       0.05875974      -0.40701341      -0.63527429 </v>
   <v>       0.31815820      -0.74614325       0.52566441 </v>
   <v>       0.18545972       0.00256017      -0.45115433 </v>
   <v>       0.60133464       0.29112288       0.70756597 </v>
   <v>      -0.11115690      -0.42046866       0.43035440 </v>
   <v>       0.25720176      -0.49569873       0.39202370 </v>
   <v>      -0.37058594       0.75221251       0.07115278 </v>
   <v>      -0.01941243      -0.21105409       0.19048429 </v>
   <v>      -0.43111126       0.10352040       0.03829854 </v>
   <v>       0.14863945       0.01971624       0.33146686 </v>
   <v>       0.48246026       0.09786972       0.37604326 </v>
   <v>      -0.04713300       0.96189622      -0.29821056 </v>
   <v>       0.04814866       0.08607923      -0.23003453 </v>
   <v>       0.35922842       0.21165514      -0.16346491 </v>
   <v>       0.00559399      -0.40815861      -0.31024478 </v>
   <v>       0.11225058       0.04525912      -0.03598385 </v>
   <v>      -0.05295841      -0.83796927       0.24472808 </v>
   <v>      -0.12888526       0.14068549      -0.61548747 </v>
   <v>       0.03291093       0.40436159      -0.28661863 </v>
   <v>      -0.09791863       0.12690599       0.62952621 </v>
   <v>       0.23468524      -0.46839736      -0.38898875 </v>
   <v>      -0.23924760       0.29122851      -0.02526059 </v>
   <v>      -0.74731288      -0.24592727      -0.19473250 </v>
   <v>       0.54232830      -0.26675146      -0.15844936 </v>
   <v>       0.36007901      -0.02911934       0.00723739 </v>
   <v>       0.21170693      -0.52641801       0.17390200 </v>
   <v>       0.97684887      -0.27003375      -0.35694339 </v>
   <v>      -0.71814373      -0.26337125      -0.29265837 </v>
   <v>      -0.59385648       0.11651962       0.21612220 </v>
   <v>      -0.50704999      -0.50343061       0.23082005 </v>
   <v>      -0.00327516       0.18312810      -0.11178132 </v>
   <v>      -0.01465920      -0.56326129      -0.50137592 </v>
   <v>       0.42623487       0.14392895      -0.06389545 </v>
   <v>      -0.70226341       0.61744831       0.07608820 </v>
   <v>      -0.08254064      -0.27770525       0.01572586 </v>
   <v>      -0.35178221      -0.15607151      -0.56930527 </v>
   <v>      -0.17996047       0.39876982      -0.25328277 </v>
   <v>       0.32521509      -0.22508559      -0.12736918 </v>
   <v>      -0.26500114      -0.15590594       0.36976535 </v>
   <v>      -0.22646070       0.94394882      -0.19741874 </v>
   <v>       0.64578381       0.57441534      -0.23701422 </v>
   <v>       0.30209050      -0.71047708      -0.25093504 </v>
   <v>      -0.10888448      -0.35979403      -0.48445821 </v>
   <v>      -0.30617675      -0.03083171      -0.20908324 </v>
   <v>      -0.05660132       0.23536883       0.00065902 </v>
   <v>       0.25288966      -0.32586911      -0.05359425 </v>
   <v>       0.31030524       0.49102618       0.31242382 </v>
   <v>      -0.43477272      -0.13816508      -0.34178047 </v>
  </varray>
  <varray name="stress" >
   <v>       1.83845944       3.34705745       1.80899392 </v>
   <v>       3.34705745       1.60233139       1.02209188 </v>
   <v>       1.80899388       1.02209184       1.88350694 </v>
  </varray>
  <energy>
   <i name="e_fr_energy">   -481.64760590 </i>
   <i name="e_wo_entrp">   -481.65702850 </i>
   <i name="e_0_energy">   -481.65074676 </i>
  </energy>
  <time name="totalsc">  324.15  326.26</time>
  <eigenvalues>
   <array>
    <dimension dim="1">band</dimension>
    <dimension dim="2">kpoint</dimension>
    <dimension dim="3">spin</dimension>
    <field>eigene</field>
    <field>occ</field>
    <set>
     <set comment="spin 1">
      <set comment="kpoint 1">
       <r>   -7.3366    1.0000 </r>
       <r>   -5.8102    1.0000 </r>
       <r>   -5.7790    1.0000 </r>
       <r>   -5.7678    1.0000 </r>
       <r>   -5.7483    1.0000 </r>
       <r>   -5.7200    1.0000 </r>
       <r>   -5.6884    1.0000 </r>
       <r>   -4.4245    1.0000 </r>
       <r>   -4.4035    1.0000 </r>
       <r>   -4.3924    1.0000 </r>
       <r>   -4.3642    1.0000 </r>
       <r>   -4.3579    1.0000 </r>
       <r>   -4.3438    1.0000 </r>
       <r>   -4.3399    1.0000 </r>
       <r>   -4.3338    1.0000 </r>
       <r>   -4.3078    1.0000 </r>
       <r>   -4.2845    1.0000 </r>
       <r>   -4.2708    1.0000 </r>
       <r>   -4.2309    1.0000 </r>
       <r>   -3.8134    1.0000 </r>
       <r>   -3.7966    1.0000 </r>
       <r>   -3.7861    1.0000 </r>
       <r>   -3.7784    1.0000 </r>
       <r>   -2.3888    1.0000 </r>
       <r>   -2.3692    1.0000 </r>
       <r>   -2.3601    1.0000 </r>
       <r>   -2.1834    1.0000 </r>
       <r>   -2.1536    1.0000 </r>
       <r>   -2.1418    1.0000 </r>
       <r>   -2.1174    1.0000 </r>
       <r>   -2.1005    1.0000 </r>
       <r>   -2.0650    1.0000 </r>
       <r>   -0.5105    1.0000 </r>
       <r>   -0.4924    1.0000 </r>
       <r>   -0.4769    1.0000 </r>
       <r>   -0.4613    1.0000 </r>
       <r>    0.2287    1.0000 </r>
       <r>    0.2330    1.0000 </r>
       <r>    0.2365    1.0000 </r>
       <r>    0.9600    1.0000 </r>
       <r>    0.9700    1.0000 </r>
       <r>    0.9878    1.0000 </r>
       <r>    0.9965    1.0000 </r>
       <r>    1.0108    1.0000 </r>
       <r>    1.0180    1.0000 </r>
       <r>    2.0101    1.0000 </r>
       <r>    2.0174    1.0000 </r>
       <r>    2.0329    1.0000 </r>
       <r>    2.0489    1.0000 </r>
       <r>    2.0559    1.0000 </r>
       <r>    2.0697    1.0000 </r>
       <r>    2.0918    1.0000 </r>
       <r>    2.0942    1.0000 </r>
       <r>    2.1147    1.0000 </r>
       <r>    2.1188    1.0000 </r>
       <r>    2.1274    1.0000 </r>
       <r>    2.1468    1.0000 </r>
       <r>    3.0017    1.0000 </r>
       <r>    3.0279    1.0000 </r>
       <r>    3.0371    1.0000 </r>
       <r>    3.0592    1.0000 </r>
       <r>    3.0787    1.0000 </r>
       <r>    3.0953    1.0000 </r>
       <r>    3.3104    1.0000 </r>
       <r>    3.3429    1.0000 </r>
       <r>    3.3499    1.0000 </r>
       <r>    3.3540    1.0000 </r>
       <r>    3.3648    1.0000 </r>
       <r>    3.3823    1.0000 </r>
       <r>    3.6243    1.0000 </r>
       <r>    3.6554    1.0000 </r>
       <r>    3.6614    1.0000 </r>
       <r>    3.6651    1.0000 </r>
       <r>    3.6790    1.0000 </r>
       <r>    3.6873    1.0000 </r>
       <r>    3.6980    1.0000 </r>
       <r>    3.7052    1.0000 </r>
       <r>    3.7212    1.0000 </r>
       <r>    3.7263    1.0000 </r>
       <r>    3.7271    1.0000 </r>
       <r>    3.7487    1.0000 </r>
       <r>    4.5967    1.0000 </r>
       <r>    4.6188    1.0000 </r>
       <r>    4.6482    1.0000 </r>
       <r>    4.6530    1.0000 </r>
       <r>    4.6683    1.0000 </r>
       <r>    4.6908    1.0000 </r>
       <r>    4.8167    1.0000 </r>
       <r>    4.8301    1.0000 </r>
       <r>    4.8330    1.0000 </r>
       <r>    4.8439    1.0000 </r>
       <r>    4.8538    1.0000 </r>
       <r>    4.8657    1.0000 </r>
       <r>    6.0123    1.0000 </r>
       <r>    6.0245    1.0000 </r>
       <r>    6.0430    1.0000 </r>
       <r>    6.0541    1.0000 </r>
       <r>    6.0680    1.0000 </r>
       <r>    6.0763    1.0000 </r>
       <r>    6.0889    1.0000 </r>
       <r>    6.0972    1.0000 </r>
       <r>    6.1044    1.0000 </r>
       <r>    6.1125    1.0000 </r>
       <r>    6.1260    1.0000 </r>
       <r>    6.1340    1.0000 </r>
       <r>    6.7338    1.0000 </r>
       <r>    6.7601    1.0000 </r>
       <r>    6.7702    1.0000 </r>
       <r>    6.7875    1.0000 </r>
       <r>    6.7973    1.0000 </r>
       <r>    6.8076    1.0000 </r>
       <r>    6.8148    1.0000 </r>
       <r>    6.8238    1.0000 </r>
       <r>    6.8296    1.0000 </r>
       <r>    6.8412    1.0000 </r>
       <r>    6.8566    1.0000 </r>
       <r>    6.8855    1.0000 </r>
       <r>    6.9339    1.0000 </r>
       <r>    6.9488    1.0000 </r>
       <r>    6.9623    1.0000 </r>
       <r>    6.9732    1.0000 </r>
       <r>    6.9879    1.0000 </r>
       <r>    7.0040    1.0000 </r>
       <r>    7.0213    1.0000 </r>
       <r>    7.0269    1.0000 </r>
       <r>    7.9801    0.9951 </r>
       <r>    8.0214    0.9264 </r>
       <r>    8.0432    0.8730 </r>
       <r>    9.3488   -0.0000 </r>
       <r>    9.3594   -0.0000 </r>
       <r>    9.3848   -0.0000 </r>
       <r>   11.9840   -0.0000 </r>
       <r>   11.9991   -0.0000 </r>
       <r>   12.0000   -0.0000 </r>
       <r>   12.0294   -0.0000 </r>
       <r>   12.0462   -0.0000 </r>
       <r>   12.0673   -0.0000 </r>
       <r>   12.2767   -0.0000 </r>
       <r>   12.2845   -0.0000 </r>
       <r>   12.2955   -0.0000 </r>
       <r>   13.1224   -0.0000 </r>
       <r>   13.1412   -0.0000 </r>
       <r>   13.1749   -0.0000 </r>
       <r>   13.1984   -0.0000 </r>
       <r>   13.2019   -0.0000 </r>
       <r>   13.2147   -0.0000 </r>
       <r>   13.3233   -0.0000 </r>
       <r>   13.3338   -0.0000 </r>
       <r>   13.3369   -0.0000 </r>
       <r>   13.3454   -0.0000 </r>
       <r>   13.4417   -0.0000 </r>
       <r>   13.4515   -0.0000 </r>
       <r>   13.4612   -0.0000 </r>
       <r>   13.4742   -0.0000 </r>
       <r>   13.4796   -0.0000 </r>
       <r>   13.4903   -0.0000 </r>
       <r>   13.5140   -0.0000 </r>
       <r>   13.5276   -0.0000 </r>
       <r>   13.5314   -0.0000 </r>
       <r>   13.5482   -0.0000 </r>
       <r>   13.5703   -0.0000 </r>
       <r>   13.5790   -0.0000 </r>
       <r>   14.1050    0.0000 </r>
       <r>   14.2464    0.0000 </r>
       <r>   14.2507    0.0000 </r>
       <r>   14.2769    0.0000 </r>
       <r>   14.3252    0.0000 </r>
       <r>   14.3298    0.0000 </r>
      </set>
      <set comment="kpoint 2">
       <r>   -7.1574    1.0000 </r>
       <r>   -6.6240    1.0000 </r>
       <r>   -5.6159    1.0000 </r>
       <r>   -5.5946    1.0000 </r>
       <r>   -5.5870    1.0000 </r>
       <r>   -5.5564    1.0000 </r>
       <r>   -5.1256    1.0000 </r>
       <r>   -5.1081    1.0000 </r>
       <r>   -5.1032    1.0000 </r>
       <r>   -5.0721    1.0000 </r>
       <r>   -4.5803    1.0000 </r>
       <r>   -4.2522    1.0000 </r>
       <r>   -4.2323    1.0000 </r>
       <r>   -4.2168    1.0000 </r>
       <r>   -4.2096    1.0000 </r>
       <r>   -3.9939    1.0000 </r>
       <r>   -3.9693    1.0000 </r>
       <r>   -3.9519    1.0000 </r>
       <r>   -3.9463    1.0000 </r>
       <r>   -3.4118    1.0000 </r>
       <r>   -3.3993    1.0000 </r>
       <r>   -3.3870    1.0000 </r>
       <r>   -3.3631    1.0000 </r>
       <r>   -3.2248    1.0000 </r>
       <r>   -2.5409    1.0000 </r>
       <r>   -2.5230    1.0000 </r>
       <r>   -2.5163    1.0000 </r>
       <r>   -2.4922    1.0000 </r>
       <r>   -2.3034    1.0000 </r>
       <r>   -2.2952    1.0000 </r>
       <r>   -2.1965    1.0000 </r>
       <r>   -2.1718    1.0000 </r>
       <r>   -0.0451    1.0000 </r>
       <r>   -0.0300    1.0000 </r>
       <r>   -0.0113    1.0000 </r>
       <r>    0.0031    1.0000 </r>
       <r>    0.3688    1.0000 </r>
       <r>    0.3769    1.0000 </r>
       <r>    0.7248    1.0000 </r>
       <r>    0.7347    1.0000 </r>
       <r>    1.0066    1.0000 </r>
       <r>    1.0282    1.0000 </r>
       <r>    1.0469    1.0000 </r>
       <r>    1.0692    1.0000 </r>
       <r>    1.0912    1.0000 </r>
       <r>    1.1133    1.0000 </r>
       <r>    1.1362    1.0000 </r>
       <r>    1.1432    1.0000 </r>
       <r>    1.2471    1.0000 </r>
       <r>    1.3753    1.0000 </r>
       <r>    1.4060    1.0000 </r>
       <r>    1.4189    1.0000 </r>
       <r>    1.4415    1.0000 </r>
       <r>    2.6891    1.0000 </r>
       <r>    2.7096    1.0000 </r>
       <r>    2.7206    1.0000 </r>
       <r>    2.7346    1.0000 </r>
       <r>    2.9172    1.0000 </r>
       <r>    2.9593    1.0000 </r>
       <r>    2.9680    1.0000 </r>
       <r>    2.9758    1.0000 </r>
       <r>    2.9916    1.0000 </r>
       <r>    3.0059    1.0000 </r>
       <r>    3.0160    1.0000 </r>
       <r>    3.0276    1.0000 </r>
       <r>    3.0450    1.0000 </r>
       <r>    3.5238    1.0000 </r>
       <r>    3.5266    1.0000 </r>
       <r>    3.6507    1.0000 </r>
       <r>    3.6556    1.0000 </r>
       <r>    3.9970    1.0000 </r>
       <r>    4.0224    1.0000 </r>
       <r>    4.0388    1.0000 </r>
       <r>    4.0606    1.0000 </r>
       <r>    4.3425    1.0000 </r>
       <r>    4.3592    1.0000 </r>
       <r>    4.3829    1.0000 </r>
       <r>    4.3938    1.0000 </r>
       <r>    4.4265    1.0000 </r>
       <r>    4.4433    1.0000 </r>
       <r>    4.4613    1.0000 </r>
       <r>    4.4801    1.0000 </r>
       <r>    4.6247    1.0000 </r>
       <r>    4.6485    1.0000 </r>
       <r>    4.6607    1.0000 </r>
       <r>    4.6670    1.0000 </r>
       <r>    4.7981    1.0000 </r>
       <r>    4.8106    1.0000 </r>
       <r>    4.8355    1.0000 </r>
       <r>    4.8426    1.0000 </r>
       <r>    4.9781    1.0000 </r>
       <r>    4.9909    1.0000 </r>
       <r>    5.4013    1.0000 </r>
       <r>    5.4133    1.0000 </r>
       <r>    5.5952    1.0000 </r>
       <r>    5.6139    1.0000 </r>
       <r>    5.6272    1.0000 </r>
       <r>    5.6359    1.0000 </r>
       <r>    5.8587    1.0000 </r>
       <r>    5.8864    1.0000 </r>
       <r>    5.9002    1.0000 </r>
       <r>    5.9207    1.0000 </r>
       <r>    6.1942    1.0000 </r>
       <r>    6.2508    1.0000 </r>
       <r>    6.2713    1.0000 </r>
       <r>    6.2944    1.0000 </r>
       <r>    6.3036    1.0000 </r>
       <r>    6.4526    1.0000 </r>
       <r>    6.4726    1.0000 </r>
       <r>    6.4905    1.0000 </r>
       <r>    6.5143    1.0000 </r>
       <r>    6.8038    1.0000 </r>
       <r>    6.8278    1.0000 </r>
       <r>    6.8328    1.0000 </r>
       <r>    6.8577    1.0000 </r>
       <r>    6.8616    1.0000 </r>
       <r>    6.8760    1.0000 </r>
       <r>    6.8979    1.0000 </r>
       <r>    6.9037    1.0000 </r>
       <r>    6.9217    1.0000 </r>
       <r>    6.9356    1.0000 </r>
       <r>    6.9497    1.0000 </r>
       <r>    6.9642    1.0000 </r>
       <r>    6.9859    1.0000 </r>
       <r>    6.9968    1.0000 </r>
       <r>    7.4636    1.0000 </r>
       <r>    7.6678    1.0019 </r>
       <r>    7.6827    1.0026 </r>
       <r>    9.6870   -0.0000 </r>
       <r>   10.1952   -0.0000 </r>
       <r>   10.2198   -0.0000 </r>
       <r>   10.6299   -0.0000 </r>
       <r>   11.9616   -0.0000 </r>
       <r>   11.9868   -0.0000 </r>
       <r>   12.4985   -0.0000 </r>
       <r>   12.6262   -0.0000 </r>
       <r>   12.6471   -0.0000 </r>
       <r>   12.6804   -0.0000 </r>
       <r>   12.6924   -0.0000 </r>
       <r>   12.9627   -0.0000 </r>
       <r>   12.9647   -0.0000 </r>
       <r>   12.9857   -0.0000 </r>
       <r>   12.9974   -0.0000 </r>
       <r>   13.0709   -0.0000 </r>
       <r>   13.0748   -0.0000 </r>
       <r>   13.0884   -0.0000 </r>
       <r>   13.1070   -0.0000 </r>
       <r>   13.1125   -0.0000 </r>
       <r>   13.1399   -0.0000 </r>
       <r>   13.1871   -0.0000 </r>
       <r>   13.4884   -0.0000 </r>
       <r>   13.6219    0.0000 </r>
       <r>   13.6387    0.0000 </r>
       <r>   13.6452    0.0000 </r>
       <r>   13.6598    0.0000 </r>
       <r>   13.6840    0.0000 </r>
       <r>   13.6911    0.0000 </r>
       <r>   13.7122    0.0000 </r>
       <r>   13.7218    0.0000 </r>
       <r>   13.9367    0.0000 </r>
       <r>   13.9523    0.0000 </r>
       <r>   13.9946    0.0000 </r>
       <r>   14.0123    0.0000 </r>
       <r>   14.4793    0.0000 </r>
       <r>   14.8196    0.0000 </r>
       <r>   14.8701    0.0000 </r>
       <r>   14.8829    0.0000 </r>
       <r>   14.9099    0.0000 </r>
      </set>
      <set comment="kpoint 3">
       <r>   -7.1580    1.0000 </r>
       <r>   -6.6213    1.0000 </r>
       <r>   -5.6478    1.0000 </r>
       <r>   -5.6007    1.0000 </r>
       <r>   -5.5704    1.0000 </r>
       <r>   -5.5417    1.0000 </r>
       <r>   -5.1540    1.0000 </r>
       <r>   -5.1081    1.0000 </r>
       <r>   -5.0807    1.0000 </r>
       <r>   -5.0492    1.0000 </r>
       <r>   -4.5875    1.0000 </r>
       <r>   -4.2701    1.0000 </r>
       <r>   -4.2420    1.0000 </r>
       <r>   -4.2295    1.0000 </r>
       <r>   -4.2067    1.0000 </r>
       <r>   -3.9718    1.0000 </r>
       <r>   -3.9620    1.0000 </r>
       <r>   -3.9467    1.0000 </r>
       <r>   -3.9323    1.0000 </r>
       <r>   -3.4491    1.0000 </r>
       <r>   -3.4039    1.0000 </r>
       <r>   -3.3767    1.0000 </r>
       <r>   -3.3438    1.0000 </r>
       <r>   -3.2301    1.0000 </r>
       <r>   -2.5678    1.0000 </r>
       <r>   -2.5212    1.0000 </r>
       <r>   -2.5020    1.0000 </r>
       <r>   -2.4646    1.0000 </r>
       <r>   -2.3207    1.0000 </r>
       <r>   -2.3154    1.0000 </r>
       <r>   -2.1917    1.0000 </r>
       <r>   -2.1549    1.0000 </r>
       <r>   -0.0468    1.0000 </r>
       <r>   -0.0296    1.0000 </r>
       <r>   -0.0126    1.0000 </r>
       <r>    0.0043    1.0000 </r>
       <r>    0.3708    1.0000 </r>
       <r>    0.3726    1.0000 </r>
       <r>    0.7288    1.0000 </r>
       <r>    0.7336    1.0000 </r>
       <r>    1.0111    1.0000 </r>
       <r>    1.0429    1.0000 </r>
       <r>    1.0576    1.0000 </r>
       <r>    1.0688    1.0000 </r>
       <r>    1.0876    1.0000 </r>
       <r>    1.1047    1.0000 </r>
       <r>    1.1227    1.0000 </r>
       <r>    1.1551    1.0000 </r>
       <r>    1.2463    1.0000 </r>
       <r>    1.3658    1.0000 </r>
       <r>    1.4008    1.0000 </r>
       <r>    1.4251    1.0000 </r>
       <r>    1.4383    1.0000 </r>
       <r>    2.6877    1.0000 </r>
       <r>    2.7012    1.0000 </r>
       <r>    2.7139    1.0000 </r>
       <r>    2.7387    1.0000 </r>
       <r>    2.9265    1.0000 </r>
       <r>    2.9553    1.0000 </r>
       <r>    2.9686    1.0000 </r>
       <r>    2.9816    1.0000 </r>
       <r>    2.9920    1.0000 </r>
       <r>    2.9949    1.0000 </r>
       <r>    3.0104    1.0000 </r>
       <r>    3.0251    1.0000 </r>
       <r>    3.0554    1.0000 </r>
       <r>    3.5238    1.0000 </r>
       <r>    3.5295    1.0000 </r>
       <r>    3.6499    1.0000 </r>
       <r>    3.6544    1.0000 </r>
       <r>    3.9973    1.0000 </r>
       <r>    4.0169    1.0000 </r>
       <r>    4.0398    1.0000 </r>
       <r>    4.0674    1.0000 </r>
       <r>    4.3497    1.0000 </r>
       <r>    4.3653    1.0000 </r>
       <r>    4.3877    1.0000 </r>
       <r>    4.3973    1.0000 </r>
       <r>    4.4083    1.0000 </r>
       <r>    4.4443    1.0000 </r>
       <r>    4.4593    1.0000 </r>
       <r>    4.4854    1.0000 </r>
       <r>    4.6243    1.0000 </r>
       <r>    4.6503    1.0000 </r>
       <r>    4.6637    1.0000 </r>
       <r>    4.6725    1.0000 </r>
       <r>    4.7967    1.0000 </r>
       <r>    4.8069    1.0000 </r>
       <r>    4.8253    1.0000 </r>
       <r>    4.8494    1.0000 </r>
       <r>    4.9732    1.0000 </r>
       <r>    4.9858    1.0000 </r>
       <r>    5.4015    1.0000 </r>
       <r>    5.4177    1.0000 </r>
       <r>    5.5924    1.0000 </r>
       <r>    5.6171    1.0000 </r>
       <r>    5.6304    1.0000 </r>
       <r>    5.6420    1.0000 </r>
       <r>    5.8454    1.0000 </r>
       <r>    5.8876    1.0000 </r>
       <r>    5.9066    1.0000 </r>
       <r>    5.9305    1.0000 </r>
       <r>    6.1863    1.0000 </r>
       <r>    6.2550    1.0000 </r>
       <r>    6.2730    1.0000 </r>
       <r>    6.2932    1.0000 </r>
       <r>    6.3102    1.0000 </r>
       <r>    6.4432    1.0000 </r>
       <r>    6.4752    1.0000 </r>
       <r>    6.4987    1.0000 </r>
       <r>    6.5135    1.0000 </r>
       <r>    6.7909    1.0000 </r>
       <r>    6.8048    1.0000 </r>
       <r>    6.8178    1.0000 </r>
       <r>    6.8459    1.0000 </r>
       <r>    6.8664    1.0000 </r>
       <r>    6.8781    1.0000 </r>
       <r>    6.8850    1.0000 </r>
       <r>    6.9053    1.0000 </r>
       <r>    6.9109    1.0000 </r>
       <r>    6.9337    1.0000 </r>
       <r>    6.9620    1.0000 </r>
       <r>    6.9740    1.0000 </r>
       <r>    7.0004    1.0000 </r>
       <r>    7.0199    1.0000 </r>
       <r>    7.4602    1.0000 </r>
       <r>    7.6690    1.0020 </r>
       <r>    7.6869    1.0028 </r>
       <r>    9.6846   -0.0000 </r>
       <r>   10.1999   -0.0000 </r>
       <r>   10.2153   -0.0000 </r>
       <r>   10.6306   -0.0000 </r>
       <r>   11.9685   -0.0000 </r>
       <r>   11.9893   -0.0000 </r>
       <r>   12.4987   -0.0000 </r>
       <r>   12.6308   -0.0000 </r>
       <r>   12.6533   -0.0000 </r>
       <r>   12.6678   -0.0000 </r>
       <r>   12.6830   -0.0000 </r>
       <r>   12.9511   -0.0000 </r>
       <r>   12.9740   -0.0000 </r>
       <r>   12.9822   -0.0000 </r>
       <r>   12.9946   -0.0000 </r>
       <r>   13.0560   -0.0000 </r>
       <r>   13.0768   -0.0000 </r>
       <r>   13.0946   -0.0000 </r>
       <r>   13.1087   -0.0000 </r>
       <r>   13.1143   -0.0000 </r>
       <r>   13.1394   -0.0000 </r>
       <r>   13.1961   -0.0000 </r>
       <r>   13.4923   -0.0000 </r>
       <r>   13.6201    0.0000 </r>
       <r>   13.6329    0.0000 </r>
       <r>   13.6441    0.0000 </r>
       <r>   13.6569    0.0000 </r>
       <r>   13.6904    0.0000 </r>
       <r>   13.6976    0.0000 </r>
       <r>   13.7065    0.0000 </r>
       <r>   13.7214    0.0000 </r>
       <r>   13.9533    0.0000 </r>
       <r>   13.9640    0.0000 </r>
       <r>   13.9802    0.0000 </r>
       <r>   14.0143    0.0000 </r>
       <r>   14.4776    0.0000 </r>
       <r>   14.8386    0.0000 </r>
       <r>   14.8744    0.0000 </r>
       <r>   14.8867    0.0000 </r>
       <r>   14.9150    0.0000 </r>
      </set>
      <set comment="kpoint 4">
       <r>   -7.1578    1.0000 </r>
       <r>   -6.6228    1.0000 </r>
       <r>   -5.6115    1.0000 </r>
       <r>   -5.6096    1.0000 </r>
       <r>   -5.5805    1.0000 </r>
       <r>   -5.5562    1.0000 </r>
       <r>   -5.1249    1.0000 </r>
       <r>   -5.1155    1.0000 </r>
       <r>   -5.0925    1.0000 </r>
       <r>   -5.0700    1.0000 </r>
       <r>   -4.5842    1.0000 </r>
       <r>   -4.2545    1.0000 </r>
       <r>   -4.2272    1.0000 </r>
       <r>   -4.2219    1.0000 </r>
       <r>   -4.2160    1.0000 </r>
       <r>   -3.9896    1.0000 </r>
       <r>   -3.9643    1.0000 </r>
       <r>   -3.9494    1.0000 </r>
       <r>   -3.9429    1.0000 </r>
       <r>   -3.4140    1.0000 </r>
       <r>   -3.4084    1.0000 </r>
       <r>   -3.3805    1.0000 </r>
       <r>   -3.3563    1.0000 </r>
       <r>   -3.2331    1.0000 </r>
       <r>   -2.5480    1.0000 </r>
       <r>   -2.5414    1.0000 </r>
       <r>   -2.5062    1.0000 </r>
       <r>   -2.4769    1.0000 </r>
       <r>   -2.3113    1.0000 </r>
       <r>   -2.2929    1.0000 </r>
       <r>   -2.1842    1.0000 </r>
       <r>   -2.1770    1.0000 </r>
       <r>   -0.0483    1.0000 </r>
       <r>   -0.0268    1.0000 </r>
       <r>   -0.0105    1.0000 </r>
       <r>    0.0034    1.0000 </r>
       <r>    0.3696    1.0000 </r>
       <r>    0.3713    1.0000 </r>
       <r>    0.7277    1.0000 </r>
       <r>    0.7310    1.0000 </r>
       <r>    1.0257    1.0000 </r>
       <r>    1.0338    1.0000 </r>
       <r>    1.0499    1.0000 </r>
       <r>    1.0561    1.0000 </r>
       <r>    1.0923    1.0000 </r>
       <r>    1.1074    1.0000 </r>
       <r>    1.1256    1.0000 </r>
       <r>    1.1418    1.0000 </r>
       <r>    1.2455    1.0000 </r>
       <r>    1.4003    1.0000 </r>
       <r>    1.4018    1.0000 </r>
       <r>    1.4184    1.0000 </r>
       <r>    1.4316    1.0000 </r>
       <r>    2.6980    1.0000 </r>
       <r>    2.7093    1.0000 </r>
       <r>    2.7190    1.0000 </r>
       <r>    2.7256    1.0000 </r>
       <r>    2.9221    1.0000 </r>
       <r>    2.9598    1.0000 </r>
       <r>    2.9738    1.0000 </r>
       <r>    2.9789    1.0000 </r>
       <r>    2.9826    1.0000 </r>
       <r>    3.0051    1.0000 </r>
       <r>    3.0125    1.0000 </r>
       <r>    3.0243    1.0000 </r>
       <r>    3.0413    1.0000 </r>
       <r>    3.5238    1.0000 </r>
       <r>    3.5333    1.0000 </r>
       <r>    3.6491    1.0000 </r>
       <r>    3.6528    1.0000 </r>
       <r>    4.0044    1.0000 </r>
       <r>    4.0223    1.0000 </r>
       <r>    4.0312    1.0000 </r>
       <r>    4.0595    1.0000 </r>
       <r>    4.3514    1.0000 </r>
       <r>    4.3606    1.0000 </r>
       <r>    4.3836    1.0000 </r>
       <r>    4.3947    1.0000 </r>
       <r>    4.4316    1.0000 </r>
       <r>    4.4459    1.0000 </r>
       <r>    4.4542    1.0000 </r>
       <r>    4.4745    1.0000 </r>
       <r>    4.6288    1.0000 </r>
       <r>    4.6442    1.0000 </r>
       <r>    4.6549    1.0000 </r>
       <r>    4.6703    1.0000 </r>
       <r>    4.8006    1.0000 </r>
       <r>    4.8120    1.0000 </r>
       <r>    4.8278    1.0000 </r>
       <r>    4.8460    1.0000 </r>
       <r>    4.9680    1.0000 </r>
       <r>    5.0011    1.0000 </r>
       <r>    5.3908    1.0000 </r>
       <r>    5.4265    1.0000 </r>
       <r>    5.5957    1.0000 </r>
       <r>    5.6123    1.0000 </r>
       <r>    5.6218    1.0000 </r>
       <r>    5.6463    1.0000 </r>
       <r>    5.8754    1.0000 </r>
       <r>    5.8849    1.0000 </r>
       <r>    5.8938    1.0000 </r>
       <r>    5.9096    1.0000 </r>
       <r>    6.1935    1.0000 </r>
       <r>    6.2529    1.0000 </r>
       <r>    6.2661    1.0000 </r>
       <r>    6.2921    1.0000 </r>
       <r>    6.3076    1.0000 </r>
       <r>    6.4547    1.0000 </r>
       <r>    6.4696    1.0000 </r>
       <r>    6.4951    1.0000 </r>
       <r>    6.5109    1.0000 </r>
       <r>    6.7907    1.0000 </r>
       <r>    6.8121    1.0000 </r>
       <r>    6.8467    1.0000 </r>
       <r>    6.8556    1.0000 </r>
       <r>    6.8627    1.0000 </r>
       <r>    6.8849    1.0000 </r>
       <r>    6.8937    1.0000 </r>
       <r>    6.9021    1.0000 </r>
       <r>    6.9157    1.0000 </r>
       <r>    6.9269    1.0000 </r>
       <r>    6.9507    1.0000 </r>
       <r>    6.9667    1.0000 </r>
       <r>    6.9920    1.0000 </r>
       <r>    7.0148    1.0000 </r>
       <r>    7.4646    1.0000 </r>
       <r>    7.6488    1.0013 </r>
       <r>    7.6990    1.0036 </r>
       <r>    9.6857   -0.0000 </r>
       <r>   10.2021   -0.0000 </r>
       <r>   10.2136   -0.0000 </r>
       <r>   10.6302   -0.0000 </r>
       <r>   11.9740   -0.0000 </r>
       <r>   11.9797   -0.0000 </r>
       <r>   12.4956   -0.0000 </r>
       <r>   12.6227   -0.0000 </r>
       <r>   12.6518   -0.0000 </r>
       <r>   12.6734   -0.0000 </r>
       <r>   12.6838   -0.0000 </r>
       <r>   12.9327   -0.0000 </r>
       <r>   12.9767   -0.0000 </r>
       <r>   12.9900   -0.0000 </r>
       <r>   13.0107   -0.0000 </r>
       <r>   13.0481   -0.0000 </r>
       <r>   13.0730   -0.0000 </r>
       <r>   13.0841   -0.0000 </r>
       <r>   13.1158   -0.0000 </r>
       <r>   13.1257   -0.0000 </r>
       <r>   13.1369   -0.0000 </r>
       <r>   13.2004   -0.0000 </r>
       <r>   13.4934   -0.0000 </r>
       <r>   13.6178    0.0000 </r>
       <r>   13.6322    0.0000 </r>
       <r>   13.6455    0.0000 </r>
       <r>   13.6624    0.0000 </r>
       <r>   13.6811    0.0000 </r>
       <r>   13.7031    0.0000 </r>
       <r>   13.7142    0.0000 </r>
       <r>   13.7203    0.0000 </r>
       <r>   13.9454    0.0000 </r>
       <r>   13.9666    0.0000 </r>
       <r>   13.9892    0.0000 </r>
       <r>   14.0016    0.0000 </r>
       <r>   14.4761    0.0000 </r>
       <r>   14.8309    0.0000 </r>
       <r>   14.8546    0.0000 </r>
       <r>   14.8813    0.0000 </r>
       <r>   14.9194    0.0000 </r>
      </set>
      <set comment="kpoint 5">
       <r>   -6.9798    1.0000 </r>
       <r>   -6.4671    1.0000 </r>
       <r>   -6.4327    1.0000 </r>
       <r>   -5.9318    1.0000 </r>
       <r>   -5.4324    1.0000 </r>
       <r>   -5.4230    1.0000 </r>
       <r>   -4.9894    1.0000 </r>
       <r>   -4.9787    1.0000 </r>
       <r>   -4.9379    1.0000 </r>
       <r>   -4.9154    1.0000 </r>
       <r>   -4.5431    1.0000 </r>
       <r>   -4.5361    1.0000 </r>
       <r>   -4.4552    1.0000 </r>
       <r>   -4.4109    1.0000 </r>
       <r>   -4.0217    1.0000 </r>
       <r>   -4.0051    1.0000 </r>
       <r>   -3.5349    1.0000 </r>
       <r>   -3.5217    1.0000 </r>
       <r>   -3.4047    1.0000 </r>
       <r>   -3.3993    1.0000 </r>
       <r>   -3.3541    1.0000 </r>
       <r>   -3.3424    1.0000 </r>
       <r>   -3.1431    1.0000 </r>
       <r>   -3.1200    1.0000 </r>
       <r>   -2.8557    1.0000 </r>
       <r>   -2.8278    1.0000 </r>
       <r>   -2.7581    1.0000 </r>
       <r>   -2.7130    1.0000 </r>
       <r>   -2.6967    1.0000 </r>
       <r>   -2.3502    1.0000 </r>
       <r>   -2.3203    1.0000 </r>
       <r>   -2.2522    1.0000 </r>
       <r>   -0.1566    1.0000 </r>
       <r>   -0.1475    1.0000 </r>
       <r>    0.4767    1.0000 </r>
       <r>    0.5208    1.0000 </r>
       <r>    0.5397    1.0000 </r>
       <r>    0.5493    1.0000 </r>
       <r>    0.5761    1.0000 </r>
       <r>    0.6698    1.0000 </r>
       <r>    0.6806    1.0000 </r>
       <r>    0.7981    1.0000 </r>
       <r>    0.8016    1.0000 </r>
       <r>    0.8361    1.0000 </r>
       <r>    0.8440    1.0000 </r>
       <r>    0.9730    1.0000 </r>
       <r>    1.1953    1.0000 </r>
       <r>    1.2102    1.0000 </r>
       <r>    1.2596    1.0000 </r>
       <r>    1.2806    1.0000 </r>
       <r>    2.0246    1.0000 </r>
       <r>    2.0465    1.0000 </r>
       <r>    2.0728    1.0000 </r>
       <r>    2.0824    1.0000 </r>
       <r>    2.1076    1.0000 </r>
       <r>    2.1133    1.0000 </r>
       <r>    2.4060    1.0000 </r>
       <r>    2.5919    1.0000 </r>
       <r>    2.5981    1.0000 </r>
       <r>    2.6628    1.0000 </r>
       <r>    2.6985    1.0000 </r>
       <r>    3.2135    1.0000 </r>
       <r>    3.2310    1.0000 </r>
       <r>    3.2805    1.0000 </r>
       <r>    3.2936    1.0000 </r>
       <r>    3.3096    1.0000 </r>
       <r>    3.5013    1.0000 </r>
       <r>    3.5363    1.0000 </r>
       <r>    3.9171    1.0000 </r>
       <r>    3.9283    1.0000 </r>
       <r>    4.0502    1.0000 </r>
       <r>    4.0604    1.0000 </r>
       <r>    4.0673    1.0000 </r>
       <r>    4.0877    1.0000 </r>
       <r>    4.1157    1.0000 </r>
       <r>    4.3105    1.0000 </r>
       <r>    4.3345    1.0000 </r>
       <r>    4.4804    1.0000 </r>
       <r>    4.4858    1.0000 </r>
       <r>    4.6577    1.0000 </r>
       <r>    4.6637    1.0000 </r>
       <r>    4.8734    1.0000 </r>
       <r>    4.8976    1.0000 </r>
       <r>    4.9093    1.0000 </r>
       <r>    4.9253    1.0000 </r>
       <r>    4.9323    1.0000 </r>
       <r>    4.9492    1.0000 </r>
       <r>    5.1126    1.0000 </r>
       <r>    5.3036    1.0000 </r>
       <r>    5.3305    1.0000 </r>
       <r>    5.4144    1.0000 </r>
       <r>    5.4220    1.0000 </r>
       <r>    5.4329    1.0000 </r>
       <r>    5.4571    1.0000 </r>
       <r>    5.5465    1.0000 </r>
       <r>    5.5682    1.0000 </r>
       <r>    5.5852    1.0000 </r>
       <r>    5.5957    1.0000 </r>
       <r>    5.6065    1.0000 </r>
       <r>    5.6194    1.0000 </r>
       <r>    5.6440    1.0000 </r>
       <r>    5.8620    1.0000 </r>
       <r>    5.9857    1.0000 </r>
       <r>    6.0012    1.0000 </r>
       <r>    6.0214    1.0000 </r>
       <r>    6.0425    1.0000 </r>
       <r>    6.1916    1.0000 </r>
       <r>    6.2118    1.0000 </r>
       <r>    6.2801    1.0000 </r>
       <r>    6.2962    1.0000 </r>
       <r>    6.4229    1.0000 </r>
       <r>    6.4363    1.0000 </r>
       <r>    6.4647    1.0000 </r>
       <r>    6.4899    1.0000 </r>
       <r>    6.5477    1.0000 </r>
       <r>    6.6435    1.0000 </r>
       <r>    6.6644    1.0000 </r>
       <r>    6.7169    1.0000 </r>
       <r>    6.7343    1.0000 </r>
       <r>    6.8503    1.0000 </r>
       <r>    6.8650    1.0000 </r>
       <r>    6.8909    1.0000 </r>
       <r>    6.9007    1.0000 </r>
       <r>    7.3035    1.0000 </r>
       <r>    7.4376    1.0000 </r>
       <r>    7.4835    1.0000 </r>
       <r>    7.6569    1.0015 </r>
       <r>    7.9906    0.9814 </r>
       <r>   10.4374   -0.0000 </r>
       <r>   10.4891   -0.0000 </r>
       <r>   10.5028   -0.0000 </r>
       <r>   11.3288   -0.0000 </r>
       <r>   11.3568   -0.0000 </r>
       <r>   11.6348   -0.0000 </r>
       <r>   11.6667   -0.0000 </r>
       <r>   11.8263   -0.0000 </r>
       <r>   12.1842   -0.0000 </r>
       <r>   12.2198   -0.0000 </r>
       <r>   12.8553   -0.0000 </r>
       <r>   12.8738   -0.0000 </r>
       <r>   12.8849   -0.0000 </r>
       <r>   12.8995   -0.0000 </r>
       <r>   13.0625   -0.0000 </r>
       <r>   13.0808   -0.0000 </r>
       <r>   13.1433   -0.0000 </r>
       <r>   13.1546   -0.0000 </r>
       <r>   13.1913   -0.0000 </r>
       <r>   13.2200   -0.0000 </r>
       <r>   13.2861   -0.0000 </r>
       <r>   13.2938   -0.0000 </r>
       <r>   13.5537   -0.0000 </r>
       <r>   13.5657   -0.0000 </r>
       <r>   13.5980   -0.0000 </r>
       <r>   13.6127    0.0000 </r>
       <r>   13.7261    0.0000 </r>
       <r>   13.7418    0.0000 </r>
       <r>   13.7653    0.0000 </r>
       <r>   13.7875    0.0000 </r>
       <r>   13.8737    0.0000 </r>
       <r>   13.9361    0.0000 </r>
       <r>   13.9841    0.0000 </r>
       <r>   14.0766    0.0000 </r>
       <r>   14.0991    0.0000 </r>
       <r>   14.6666    0.0000 </r>
       <r>   14.7551    0.0000 </r>
       <r>   14.7604    0.0000 </r>
       <r>   14.9765    0.0000 </r>
       <r>   15.0286    0.0000 </r>
      </set>
      <set comment="kpoint 6">
       <r>   -6.9805    1.0000 </r>
       <r>   -6.4613    1.0000 </r>
       <r>   -6.4362    1.0000 </r>
       <r>   -5.9327    1.0000 </r>
       <r>   -5.4426    1.0000 </r>
       <r>   -5.4151    1.0000 </r>
       <r>   -4.9917    1.0000 </r>
       <r>   -4.9607    1.0000 </r>
       <r>   -4.9431    1.0000 </r>
       <r>   -4.9302    1.0000 </r>
       <r>   -4.5518    1.0000 </r>
       <r>   -4.5296    1.0000 </r>
       <r>   -4.4415    1.0000 </r>
       <r>   -4.4097    1.0000 </r>
       <r>   -4.0288    1.0000 </r>
       <r>   -4.0012    1.0000 </r>
       <r>   -3.5438    1.0000 </r>
       <r>   -3.5140    1.0000 </r>
       <r>   -3.4109    1.0000 </r>
       <r>   -3.3742    1.0000 </r>
       <r>   -3.3639    1.0000 </r>
       <r>   -3.3566    1.0000 </r>
       <r>   -3.1380    1.0000 </r>
       <r>   -3.1153    1.0000 </r>
       <r>   -2.8550    1.0000 </r>
       <r>   -2.8475    1.0000 </r>
       <r>   -2.7446    1.0000 </r>
       <r>   -2.7190    1.0000 </r>
       <r>   -2.7017    1.0000 </r>
       <r>   -2.3421    1.0000 </r>
       <r>   -2.3164    1.0000 </r>
       <r>   -2.2522    1.0000 </r>
       <r>   -0.1709    1.0000 </r>
       <r>   -0.1502    1.0000 </r>
       <r>    0.4801    1.0000 </r>
       <r>    0.5105    1.0000 </r>
       <r>    0.5514    1.0000 </r>
       <r>    0.5703    1.0000 </r>
       <r>    0.5891    1.0000 </r>
       <r>    0.6520    1.0000 </r>
       <r>    0.6794    1.0000 </r>
       <r>    0.7858    1.0000 </r>
       <r>    0.7991    1.0000 </r>
       <r>    0.8355    1.0000 </r>
       <r>    0.8617    1.0000 </r>
       <r>    0.9800    1.0000 </r>
       <r>    1.1854    1.0000 </r>
       <r>    1.2195    1.0000 </r>
       <r>    1.2676    1.0000 </r>
       <r>    1.2793    1.0000 </r>
       <r>    2.0141    1.0000 </r>
       <r>    2.0397    1.0000 </r>
       <r>    2.0535    1.0000 </r>
       <r>    2.0706    1.0000 </r>
       <r>    2.0996    1.0000 </r>
       <r>    2.1254    1.0000 </r>
       <r>    2.4095    1.0000 </r>
       <r>    2.5701    1.0000 </r>
       <r>    2.6087    1.0000 </r>
       <r>    2.6624    1.0000 </r>
       <r>    2.7134    1.0000 </r>
       <r>    3.2167    1.0000 </r>
[...]
      </set>
     </set>
    </set>
   </array>
  </eigenvalues>
  <separator name="orbital magnetization" >
   <v name="MAGDIPOLOUT">      0.00000000      0.00000000      0.00000000</v>
  </separator>
  <dos>
   <i name="efermi">      8.14423922 </i>
   <total>
    <array>
     <dimension dim="1">gridpoints</dimension>
     <dimension dim="2">spin</dimension>
     <field>energy</field>
     <field>total</field>
     <field>integrated</field>
     <set>
      <set comment="spin 1">
       <r>    -9.3366     0.0000     0.0000 </r>
       <r>    -9.2472     0.0000     0.0000 </r>
       <r>    -9.1578     0.0000     0.0000 </r>
       <r>    -9.0684     0.0000     0.0000 </r>
       <r>    -8.9790    -0.0000    -0.0000 </r>
       <r>    -8.8895    -0.0000    -0.0000 </r>
       <r>    -8.8001    -0.0000    -0.0000 </r>
       <r>    -8.7107    -0.0000    -0.0000 </r>
       <r>    -8.6213    -0.0000    -0.0000 </r>
       <r>    -8.5319    -0.0000    -0.0000 </r>
       <r>    -8.4424    -0.0000    -0.0000 </r>
       <r>    -8.3530    -0.0000    -0.0000 </r>
       <r>    -8.2636    -0.0000    -0.0000 </r>
       <r>    -8.1742    -0.0000    -0.0000 </r>
       <r>    -8.0848    -0.0000    -0.0000 </r>
       <r>    -7.9954    -0.0000    -0.0000 </r>
       <r>    -7.9059    -0.0002    -0.0000 </r>
       <r>    -7.8165    -0.0014    -0.0001 </r>
       <r>    -7.7271    -0.0072    -0.0008 </r>
       <r>    -7.6377    -0.0230    -0.0028 </r>
       <r>    -7.5483    -0.0416    -0.0066 </r>
       <r>    -7.4588    -0.0191    -0.0083 </r>
       <r>    -7.3694     0.1476     0.0049 </r>
       <r>    -7.2800     0.6331     0.0615 </r>
       <r>    -7.1906     1.5574     0.2008 </r>
       <r>    -7.1012     2.8114     0.4522 </r>
       <r>    -7.0117     4.0288     0.8125 </r>
       <r>    -6.9223     4.5641     1.2206 </r>
       <r>    -6.8329     4.0746     1.5849 </r>
       <r>    -6.7435     3.0961     1.8618 </r>
       <r>    -6.6541     2.7080     2.1039 </r>
       <r>    -6.5647     4.0731     2.4681 </r>
       <r>    -6.4752     7.1696     3.1092 </r>
       <r>    -6.3858     9.9914     4.0026 </r>
       <r>    -6.2964    10.3655     4.9295 </r>
       <r>    -6.2070     7.7176     5.6196 </r>
       <r>    -6.1176     3.7445     5.9544 </r>
       <r>    -6.0281     1.8132     6.1166 </r>
       <r>    -5.9387     3.5185     6.4312 </r>
       <r>    -5.8493     7.2562     7.0800 </r>
       <r>    -5.7599    10.4871     8.0178 </r>
       <r>    -5.6705    11.7355     9.0671 </r>
       <r>    -5.5811    11.5691    10.1016 </r>
       <r>    -5.4916    11.2015    11.1033 </r>
       <r>    -5.4022    10.1370    12.0097 </r>
       <r>    -5.3128     7.6348    12.6924 </r>
       <r>    -5.2234     5.8433    13.2149 </r>
       <r>    -5.1340     8.1038    13.9395 </r>
       <r>    -5.0445    13.8840    15.1810 </r>
       <r>    -4.9551    17.5150    16.7472 </r>
       <r>    -4.8657    13.9254    17.9924 </r>
       <r>    -4.7763     6.0444    18.5328 </r>
       <r>    -4.6869     2.1729    18.7271 </r>
       <r>    -4.5974     5.7557    19.2418 </r>
       <r>    -4.5080    12.7044    20.3778 </r>
       <r>    -4.4186    18.0042    21.9877 </r>
       <r>    -4.3292    19.9793    23.7743 </r>
       <r>    -4.2398    18.0512    25.3884 </r>
       <r>    -4.1504    14.2432    26.6620 </r>
       <r>    -4.0609    15.4923    28.0473 </r>
       <r>    -3.9715    22.7409    30.0807 </r>
       <r>    -3.8821    25.3411    32.3467 </r>
       <r>    -3.7927    18.3403    33.9867 </r>
       <r>    -3.7033    10.7267    34.9458 </r>
       <r>    -3.6138    10.1610    35.8544 </r>
       <r>    -3.5244    15.5591    37.2457 </r>
       <r>    -3.4350    22.4010    39.2488 </r>
       <r>    -3.3456    24.4230    41.4326 </r>
       <r>    -3.2562    19.5307    43.1790 </r>
       <r>    -3.1667    15.0121    44.5214 </r>
       <r>    -3.0773    16.1528    45.9658 </r>
       <r>    -2.9879    20.2563    47.7770 </r>
       <r>    -2.8985    25.5485    50.0616 </r>
       <r>    -2.8091    30.0893    52.7521 </r>
       <r>    -2.7197    27.9146    55.2482 </r>
       <r>    -2.6302    18.7315    56.9231 </r>
       <r>    -2.5408    10.7515    57.8845 </r>
       <r>    -2.4514     9.6390    58.7464 </r>
       <r>    -2.3620    13.7863    59.9792 </r>
       <r>    -2.2726    17.5085    61.5448 </r>
       <r>    -2.1831    15.7273    62.9511 </r>
       <r>    -2.0937     9.2843    63.7813 </r>
       <r>    -2.0043     3.1571    64.0636 </r>
       <r>    -1.9149     0.1369    64.0758 </r>
       <r>    -1.8255    -0.4731    64.0335 </r>
       <r>    -1.7360    -0.2734    64.0091 </r>
       <r>    -1.6466    -0.0832    64.0016 </r>
       <r>    -1.5572    -0.0160    64.0002 </r>
       <r>    -1.4678    -0.0020    64.0000 </r>
       <r>    -1.3784    -0.0002    64.0000 </r>
       <r>    -1.2890    -0.0000    64.0000 </r>
       <r>    -1.1995    -0.0000    64.0000 </r>
       <r>    -1.1101    -0.0002    64.0000 </r>
       <r>    -1.0207    -0.0017    63.9998 </r>
       <r>    -0.9313    -0.0105    63.9989 </r>
       <r>    -0.8419    -0.0386    63.9954 </r>
       <r>    -0.7524    -0.0615    63.9899 </r>
       <r>    -0.6630     0.0659    63.9958 </r>
       <r>    -0.5736     0.4524    64.0363 </r>
       <r>    -0.4842     0.7500    64.1034 </r>
       <r>    -0.3948     0.7227    64.1680 </r>
       <r>    -0.3053     1.6974    64.3198 </r>
       <r>    -0.2159     5.2558    64.7897 </r>
       <r>    -0.1265     9.7262    65.6594 </r>
       <r>    -0.0371    11.1456    66.6561 </r>
       <r>     0.0523     8.4720    67.4136 </r>
       <r>     0.1417     5.7534    67.9281 </r>
       <r>     0.2312     7.5136    68.5999 </r>
       <r>     0.3206    13.0943    69.7708 </r>
       <r>     0.4100    18.9852    71.4684 </r>
       <r>     0.4994    23.2213    73.5449 </r>
       <r>     0.5888    24.9219    75.7733 </r>
       <r>     0.6783    25.6216    78.0644 </r>
       <r>     0.7677    28.9460    80.6527 </r>
       <r>     0.8571    32.7943    83.5851 </r>
       <r>     0.9465    31.3527    86.3887 </r>
       <r>     1.0359    27.8318    88.8773 </r>
       <r>     1.1254    30.5402    91.6082 </r>
       <r>     1.2148    38.0844    95.0137 </r>
       <r>     1.3042    39.8474    98.5768 </r>
       <r>     1.3936    30.0274   101.2618 </r>
       <r>     1.4830    14.8097   102.5860 </r>
       <r>     1.5724     3.5266   102.9014 </r>
       <r>     1.6619    -0.9930   102.8126 </r>
       <r>     1.7513    -1.1637   102.7085 </r>
       <r>     1.8407     1.3043   102.8252 </r>
       <r>     1.9301     8.1413   103.5532 </r>
       <r>     2.0195    19.5511   105.3014 </r>
       <r>     2.1090    27.5881   107.7683 </r>
       <r>     2.1984    24.1901   109.9313 </r>
       <r>     2.2878    13.6021   111.1476 </r>
       <r>     2.3772     5.8667   111.6722 </r>
       <r>     2.4666     5.0848   112.1269 </r>
       <r>     2.5560     9.9597   113.0174 </r>
       <r>     2.6455    16.3064   114.4755 </r>
       <r>     2.7349    17.8348   116.0703 </r>
       <r>     2.8243    13.9330   117.3162 </r>
       <r>     2.9137    12.4206   118.4268 </r>
       <r>     3.0031    16.5680   119.9083 </r>
       <r>     3.0926    21.4654   121.8277 </r>
       <r>     3.1820    26.4330   124.1913 </r>
       <r>     3.2714    32.7042   127.1157 </r>
       <r>     3.3608    34.2679   130.1799 </r>
       <r>     3.4502    29.4017   132.8089 </r>
       <r>     3.5397    25.5736   135.0957 </r>
       <r>     3.6291    23.8941   137.2323 </r>
       <r>     3.7185    19.0707   138.9375 </r>
       <r>     3.8079    12.6260   140.0665 </r>
       <r>     3.8973    12.6573   141.1983 </r>
       <r>     3.9867    20.7925   143.0576 </r>
       <r>     4.0762    26.4384   145.4217 </r>
       <r>     4.1656    22.1206   147.3997 </r>
       <r>     4.2550    17.1611   148.9342 </r>
       <r>     4.3444    22.1278   150.9128 </r>
       <r>     4.4338    31.7773   153.7543 </r>
       <r>     4.5233    36.9116   157.0549 </r>
       <r>     4.6127    36.7464   160.3407 </r>
       <r>     4.7021    34.3910   163.4159 </r>
       <r>     4.7915    33.9170   166.4487 </r>
       <r>     4.8809    36.2038   169.6860 </r>
       <r>     4.9704    35.6741   172.8760 </r>
       <r>     5.0598    31.4633   175.6894 </r>
       <r>     5.1492    29.7189   178.3468 </r>
       <r>     5.2386    30.8343   181.1039 </r>
       <r>     5.3280    30.3526   183.8180 </r>
       <r>     5.4174    29.6099   186.4657 </r>
       <r>     5.5069    34.3048   189.5332 </r>
       <r>     5.5963    42.8009   193.3604 </r>
       <r>     5.6857    44.7266   197.3598 </r>
       <r>     5.7751    38.3547   200.7894 </r>
       <r>     5.8645    33.7693   203.8090 </r>
       <r>     5.9540    33.3401   206.7903 </r>
       <r>     6.0434    31.0230   209.5643 </r>
       <r>     6.1328    27.8313   212.0529 </r>
       <r>     6.2222    29.5171   214.6923 </r>
       <r>     6.3116    34.0983   217.7413 </r>
       <r>     6.4011    36.4191   220.9979 </r>
       <r>     6.4905    35.1353   224.1396 </r>
       <r>     6.5799    29.6784   226.7934 </r>
       <r>     6.6693    24.5899   228.9922 </r>
       <r>     6.7587    28.1433   231.5088 </r>
       <r>     6.8481    39.2332   235.0169 </r>
       <r>     6.9376    45.2190   239.0604 </r>
       <r>     7.0270    36.9443   242.3639 </r>
       <r>     7.1164    21.2201   244.2614 </r>
       <r>     7.2058    11.2930   245.2712 </r>
       <r>     7.2952    11.1197   246.2655 </r>
       <r>     7.3847    15.8803   247.6855 </r>
       <r>     7.4741    20.4114   249.5106 </r>
       <r>     7.5635    21.8416   251.4637 </r>
       <r>     7.6529    19.1583   253.1768 </r>
       <r>     7.7423    13.1925   254.3565 </r>
       <r>     7.8318     6.9531   254.9782 </r>
       <r>     7.9212     3.9965   255.3356 </r>
       <r>     8.0106     3.7503   255.6709 </r>
       <r>     8.1000     2.9162   255.9317 </r>
       <r>     8.1894     1.1125   256.0311 </r>
       <r>     8.2788    -0.0257   256.0288 </r>
       <r>     8.3683    -0.2068   256.0103 </r>
       <r>     8.4577    -0.0915   256.0022 </r>
       <r>     8.5471    -0.0209   256.0003 </r>
       <r>     8.6365    -0.0029   256.0000 </r>
       <r>     8.7259    -0.0003   256.0000 </r>
       <r>     8.8154    -0.0009   255.9999 </r>
       <r>     8.9048    -0.0061   255.9994 </r>
       <r>     8.9942    -0.0247   255.9972 </r>
       <r>     9.0836    -0.0466   255.9930 </r>
       <r>     9.1730     0.0290   255.9956 </r>
       <r>     9.2625     0.3396   256.0260 </r>
       <r>     9.3519     0.7240   256.0907 </r>
       <r>     9.4413     0.7925   256.1616 </r>
       <r>     9.5307     0.7487   256.2285 </r>
       <r>     9.6201     1.1969   256.3355 </r>
       <r>     9.7095     1.7451   256.4916 </r>
       <r>     9.7990     1.4227   256.6188 </r>
       <r>     9.8884     0.4315   256.6574 </r>
       <r>     9.9778    -0.1357   256.6452 </r>
       <r>    10.0672     0.4538   256.6858 </r>
       <r>    10.1566     1.9813   256.8630 </r>
       <r>    10.2461     3.4114   257.1680 </r>
       <r>    10.3355     5.0193   257.6168 </r>
       <r>    10.4249     8.1373   258.3445 </r>
       <r>    10.5143    11.1327   259.3399 </r>
       <r>    10.6037    11.6525   260.3819 </r>
       <r>    10.6932    10.5643   261.3265 </r>
       <r>    10.7826     8.2264   262.0621 </r>
       <r>    10.8720     4.2424   262.4415 </r>
       <r>    10.9614     0.6731   262.5017 </r>
       <r>    11.0508    -0.7807   262.4319 </r>
       <r>    11.1402    -0.3868   262.3973 </r>
       <r>    11.2297     1.8502   262.5627 </r>
       <r>    11.3191     5.2779   263.0347 </r>
       <r>    11.4085     7.6763   263.7211 </r>
       <r>    11.4979     9.1300   264.5375 </r>
       <r>    11.5873    11.3718   265.5543 </r>
       <r>    11.6768    13.0754   266.7235 </r>
       <r>    11.7662    14.0706   267.9817 </r>
       <r>    11.8556    17.5020   269.5467 </r>
       <r>    11.9450    21.8890   271.5040 </r>
       <r>    12.0344    22.2489   273.4934 </r>
       <r>    12.1238    18.5550   275.1526 </r>
       <r>    12.2133    13.4328   276.3537 </r>
       <r>    12.3027     7.5226   277.0264 </r>
       <r>    12.3921     2.7429   277.2717 </r>
       <r>    12.4815     3.5447   277.5886 </r>
       <r>    12.5709    11.3835   278.6065 </r>
       <r>    12.6604    20.9225   280.4774 </r>
       <r>    12.7498    26.1660   282.8171 </r>
       <r>    12.8392    27.7635   285.2997 </r>
       <r>    12.9286    28.7254   287.8683 </r>
       <r>    13.0180    31.1009   290.6493 </r>
       <r>    13.1075    35.4002   293.8147 </r>
       <r>    13.1969    35.8956   297.0245 </r>
       <r>    13.2863    27.2869   299.4644 </r>
       <r>    13.3757    15.6788   300.8664 </r>
       <r>    13.4651    13.1309   302.0405 </r>
       <r>    13.5545    22.7596   304.0757 </r>
       <r>    13.6440    34.1802   307.1320 </r>
       <r>    13.7334    36.3060   310.3785 </r>
       <r>    13.8228    30.3633   313.0935 </r>
       <r>    13.9122    26.1325   315.4302 </r>
       <r>    14.0016    28.4334   317.9727 </r>
       <r>    14.0911    32.0397   320.8377 </r>
       <r>    14.1805    29.9712   323.5177 </r>
       <r>    14.2699    21.1255   325.4067 </r>
       <r>    14.3593    10.0739   326.3075 </r>
       <r>    14.4487     2.7567   326.5540 </r>
       <r>    14.5382     2.2431   326.7545 </r>
       <r>    14.6276     8.2929   327.4961 </r>
       <r>    14.7170    16.7845   328.9969 </r>
       <r>    14.8064    21.0050   330.8752 </r>
       <r>    14.8958    19.0422   332.5779 </r>
       <r>    14.9852    14.1585   333.8439 </r>
       <r>    15.0747     8.3544   334.5910 </r>
       <r>    15.1641     2.9099   334.8512 </r>
       <r>    15.2535     0.1993   334.8690 </r>
       <r>    15.3429     1.1328   334.9703 </r>
       <r>    15.4323     3.7139   335.3024 </r>
       <r>    15.5218     4.6328   335.7166 </r>
       <r>    15.6112     2.8990   335.9759 </r>
       <r>    15.7006     0.7183   336.0401 </r>
       <r>    15.7900    -0.1843   336.0236 </r>
       <r>    15.8794    -0.1898   336.0066 </r>
       <r>    15.9689    -0.0618   336.0011 </r>
       <r>    16.0583    -0.0111   336.0001 </r>
       <r>    16.1477    -0.0012   336.0000 </r>
       <r>    16.2371    -0.0001   336.0000 </r>
       <r>    16.3265    -0.0000   336.0000 </r>
       <r>    16.4159    -0.0000   336.0000 </r>
       <r>    16.5054    -0.0000   336.0000 </r>
       <r>    16.5948    -0.0000   336.0000 </r>
       <r>    16.6842    -0.0000   336.0000 </r>
       <r>    16.7736    -0.0000   336.0000 </r>
       <r>    16.8630     0.0000   336.0000 </r>
       <r>    16.9525     0.0000   336.0000 </r>
       <r>    17.0419     0.0000   336.0000 </r>
       <r>    17.1313     0.0000   336.0000 </r>
       <r>    17.2207     0.0000   336.0000 </r>
       <r>    17.3101     0.0000   336.0000 </r>
       <r>    17.3996     0.0000   336.0000 </r>
       <r>    17.4890     0.0000   336.0000 </r>
      </set>
     </set>
    </array>
   </total>
  </dos>
 </calculation>
 <structure name="finalpos" >
  <crystal>
   <varray name="basis" >
    <v>       8.74331558       0.00000000       0.00000000 </v>
    <v>       0.00000000       8.74331558       0.00000000 </v>
    <v>       0.00000000       0.00000000       8.74331558 </v>
   </varray>
   <i name="volume">    668.38771987 </i>
   <varray name="rec_basis" >
    <v>       0.11437309       0.00000000       0.00000000 </v>
    <v>       0.00000000       0.11437309       0.00000000 </v>
    <v>       0.00000000       0.00000000       0.11437309 </v>
   </varray>
  </crystal>
  <varray name="positions" >
   <v>       0.12464202       0.12452104       0.12430840 </v>
   <v>       0.12714060       0.37785248       0.37491822 </v>
   <v>       0.37415520       0.12223625       0.37343938 </v>
   <v>       0.37639184       0.37689443       0.12249217 </v>
   <v>       0.12373268       0.12723627       0.62338292 </v>
   <v>       0.12709031       0.37059020       0.87603320 </v>
   <v>       0.37473409       0.12554218       0.87407701 </v>
   <v>       0.37708875       0.37428710       0.62547956 </v>
   <v>       0.12668159       0.62545784       0.12777695 </v>
   <v>       0.12563397       0.87342779       0.37576433 </v>
   <v>       0.37448256       0.62291139       0.37443922 </v>
   <v>       0.37768716       0.87427558       0.12479600 </v>
   <v>       0.12404711       0.62362659       0.62276059 </v>
   <v>       0.12280282       0.87201578       0.87427053 </v>
   <v>       0.37557653       0.62329052       0.87378073 </v>
   <v>       0.37699734       0.87537063       0.62548424 </v>
   <v>       0.62658133       0.12625772       0.12791652 </v>
   <v>       0.62446042       0.37820055       0.37256988 </v>
   <v>       0.87513446       0.12444776       0.37780251 </v>
   <v>       0.87286262       0.37383169       0.12305742 </v>
   <v>       0.62500740       0.12727058       0.62286248 </v>
   <v>       0.62415740       0.37639509       0.87313350 </v>
   <v>       0.87617647       0.12092628       0.87366947 </v>
   <v>       0.87662004       0.37526675       0.62287041 </v>
   <v>       0.62652805       0.62527347       0.12465050 </v>
   <v>       0.62619108       0.87498412       0.37439582 </v>
   <v>       0.87383992       0.62520380       0.37327555 </v>
   <v>       0.87622700       0.87203465       0.12624536 </v>
   <v>       0.62475907       0.62530991       0.62615231 </v>
   <v>       0.62345159       0.87506571       0.87650132 </v>
   <v>       0.87576413       0.62695775       0.87462829 </v>
   <v>       0.87537312       0.87531285       0.62512917 </v>
   <v>       0.00068780       0.00198263       0.99889492 </v>
   <v>       0.00084688       0.24972912       0.25307694 </v>
   <v>       0.24942227       0.99662432       0.25081740 </v>
   <v>       0.25173211       0.24905485       0.99848620 </v>
   <v>       0.99970081       0.00184010       0.50237924 </v>
   <v>       0.00087895       0.24846549       0.75015303 </v>
   <v>       0.25287476       0.00095502       0.75054334 </v>
   <v>       0.24900614       0.25143531       0.49987462 </v>
   <v>       0.99902160       0.50021858       0.99984590 </v>
   <v>       0.99978903       0.75195708       0.25007264 </v>
   <v>       0.24695952       0.50174149       0.25068692 </v>
   <v>       0.25428648       0.74984719       0.00114828 </v>
   <v>       0.00219539       0.50037577       0.49730380 </v>
   <v>       0.00247102       0.75111349       0.74799219 </v>
   <v>       0.24967103       0.49779019       0.75030234 </v>
   <v>       0.25120483       0.75161943       0.50270835 </v>
   <v>       0.49927300       0.00050965       0.00118813 </v>
   <v>       0.50269537       0.24819024       0.25000559 </v>
   <v>       0.75209484       0.00031220       0.25025412 </v>
   <v>       0.75134435       0.24999743       0.00094948 </v>
   <v>       0.50180024       0.99825420       0.50018823 </v>
   <v>       0.49935991       0.25144939       0.75029384 </v>
   <v>       0.74976147       0.00020214       0.74794421 </v>
   <v>       0.75080894       0.24774178       0.49987903 </v>
   <v>       0.49847707       0.49831866       0.00079621 </v>
   <v>       0.49998418       0.75180391       0.25179464 </v>
   <v>       0.74993303       0.50245634       0.25075809 </v>
   <v>       0.75163588       0.74979274       0.00098010 </v>
   <v>       0.50072711       0.49938425       0.49965510 </v>
   <v>       0.49945889       0.75072697       0.75152893 </v>
   <v>       0.74952623       0.49808867       0.74776725 </v>
   <v>       0.75231132       0.74993629       0.50186439 </v>
  </varray>
 </structure>
</modeling>
