unknown system                          
           1
     8.743316    0.000000    0.000000
     0.000000    8.743316    0.000000
     0.000000    0.000000    8.743316
   C    Si
    32    32
Direct configuration=     1
   0.12464202  0.12452104  0.12430840
   0.12714060  0.37785248  0.37491822
   0.37415520  0.12223625  0.37343938
   0.37639184  0.37689443  0.12249217
   0.12373268  0.12723627  0.62338292
   0.12709031  0.37059020  0.87603320
   0.37473409  0.12554218  0.87407701
   0.37708875  0.37428710  0.62547956
   0.12668159  0.62545784  0.12777695
   0.12563397  0.87342779  0.37576433
   0.37448256  0.62291139  0.37443922
   0.37768716  0.87427558  0.12479600
   0.12404711  0.62362659  0.62276059
   0.12280282  0.87201578  0.87427053
   0.37557653  0.62329052  0.87378073
   0.37699734  0.87537063  0.62548424
   0.62658133  0.12625772  0.12791652
   0.62446042  0.37820055  0.37256988
   0.87513446  0.12444776  0.37780251
   0.87286262  0.37383169  0.12305742
   0.62500740  0.12727058  0.62286248
   0.62415740  0.37639509  0.87313350
   0.87617647  0.12092628  0.87366947
   0.87662004  0.37526675  0.62287041
   0.62652805  0.62527347  0.12465050
   0.62619108  0.87498412  0.37439582
   0.87383992  0.62520380  0.37327555
   0.87622700  0.87203465  0.12624536
   0.62475907  0.62530991  0.62615231
   0.62345159  0.87506571  0.87650132
   0.87576413  0.62695775  0.87462829
   0.87537312  0.87531285  0.62512917
   0.00068780  0.00198263  0.99889492
   0.00084688  0.24972912  0.25307694
   0.24942227  0.99662432  0.25081740
   0.25173211  0.24905485  0.99848620
   0.99970081  0.00184010  0.50237924
   0.00087895  0.24846549  0.75015303
   0.25287476  0.00095502  0.75054334
   0.24900614  0.25143531  0.49987462
   0.99902160  0.50021858  0.99984590
   0.99978903  0.75195708  0.25007264
   0.24695952  0.50174149  0.25068692
   0.25428648  0.74984719  0.00114828
   0.00219539  0.50037577  0.49730380
   0.00247102  0.75111349  0.74799219
   0.24967103  0.49779019  0.75030234
   0.25120483  0.75161943  0.50270835
   0.49927300  0.00050965  0.00118813
   0.50269537  0.24819024  0.25000559
   0.75209484  0.00031220  0.25025412
   0.75134435  0.24999743  0.00094948
   0.50180024  0.99825420  0.50018823
   0.49935991  0.25144939  0.75029384
   0.74976147  0.00020214  0.74794421
   0.75080894  0.24774178  0.49987903
   0.49847707  0.49831866  0.00079621
   0.49998418  0.75180391  0.25179464
   0.74993303  0.50245634  0.25075809
   0.75163588  0.74979274  0.00098010
   0.50072711  0.49938425  0.49965510
   0.49945889  0.75072697  0.75152893
   0.74952623  0.49808867  0.74776725
   0.75231132  0.74993629  0.50186439
