       N       E                     dE             d eps       ncg     rms          rms(c)
DAV:   1     0.668284065791E+03    0.66828E+03   -0.99545E+04  4704   0.111E+03
DAV:   2    -0.463580854404E+03   -0.11319E+04   -0.10721E+04  5832   0.221E+02
DAV:   3    -0.538342170848E+03   -0.74761E+02   -0.74077E+02  5672   0.559E+01
DAV:   4    -0.539983573064E+03   -0.16414E+01   -0.16344E+01  5696   0.900E+00
DAV:   5    -0.540029664869E+03   -0.46092E-01   -0.46019E-01  5568   0.143E+00    0.491E+01
DAV:   6    -0.483604556161E+03    0.56425E+02   -0.18977E+02  5360   0.234E+01    0.218E+01
DAV:   7    -0.482233262211E+03    0.13713E+01   -0.15478E+01  5944   0.694E+00    0.971E+00
DAV:   8    -0.482007200864E+03    0.22606E+00   -0.99010E-01  5352   0.193E+00    0.253E+00
DAV:   9    -0.481991130136E+03    0.16071E-01   -0.13156E-01  5400   0.771E-01    0.415E-01
DAV:  10    -0.481994792200E+03   -0.36621E-02   -0.12086E-02  5624   0.224E-01    0.208E-01
DAV:  11    -0.481995356808E+03   -0.56461E-03   -0.15654E-03  5144   0.998E-02    0.530E-02
DAV:  12    -0.481995361908E+03   -0.50993E-05   -0.12939E-04  5656   0.255E-02    0.228E-02
DAV:  13    -0.481995365033E+03   -0.31254E-05   -0.15380E-05  5360   0.102E-02    0.676E-03
DAV:  14    -0.481995370138E+03   -0.51053E-05   -0.37059E-06  5584   0.395E-03    0.374E-03
DAV:  15    -0.481995371560E+03   -0.14216E-05   -0.56055E-07  5344   0.178E-03    0.217E-03
DAV:  16    -0.481995371794E+03   -0.23398E-06   -0.30930E-08  3968   0.465E-04    0.138E-03
DAV:  17    -0.481995371520E+03    0.27395E-06   -0.17826E-08  3024   0.317E-04    0.159E-04
DAV:  18    -0.481995371590E+03   -0.70340E-07   -0.38066E-09  2784   0.160E-04    0.156E-04
DAV:  19    -0.481995371576E+03    0.14628E-07   -0.89576E-10  2720   0.810E-05    0.101E-04
DAV:  20    -0.481995371571E+03    0.47839E-08   -0.32107E-10  2688   0.492E-05
   1 F= -.48199537E+03 E0= -.48199840E+03  d E =0.909621E-02
