<?xml version="1.0" encoding="ISO-8859-1"?>
<modeling>
 <generator>
  <i name="program" type="string">vasp </i>
  <i name="version" type="string">6.2.1  </i>
  <i name="subversion" type="string">16May21 (build Jun 06 2020 10:27:25) complex                          parallel </i>
  <i name="platform" type="string">LinuxIFC </i>
  <i name="date" type="string">2024 01 12 </i>
  <i name="time" type="string">17:53:55 </i>
 </generator>
 <incar>
  <i type="int" name="NELM">    60</i>
  <i type="int" name="IBRION">     1</i>
  <i name="EDIFF">      0.00000001</i>
  <i type="int" name="NSW">     0</i>
  <i type="int" name="ISIF">     3</i>
  <i type="int" name="ISYM">     0</i>
  <i type="logical" name="LWAVE"> F  </i>
  <i type="logical" name="LCHARG"> F  </i>
  <i type="string" name="GGA">PE</i>
 </incar>
 <primitive_cell>
  <structure name="primitive_cell" >
   <crystal>
    <varray name="basis" >
     <v>       8.74331558       0.00000000       0.00000000 </v>
     <v>       0.00000000       8.74331558       0.00000000 </v>
     <v>       0.00000000       0.00000000       8.74331558 </v>
    </varray>
    <i name="volume">    668.38771987 </i>
    <varray name="rec_basis" >
     <v>       0.11437309       0.00000000       0.00000000 </v>
     <v>       0.00000000       0.11437309       0.00000000 </v>
     <v>       0.00000000       0.00000000       0.11437309 </v>
    </varray>
   </crystal>
   <varray name="positions" >
    <v>       0.12625527       0.12536416       0.12394863 </v>
    <v>       0.12470622       0.37501774       0.37512710 </v>
    <v>       0.37512145       0.12358695       0.37487138 </v>
    <v>       0.37406490       0.37574921       0.12523014 </v>
    <v>       0.12463551       0.12588893       0.62400419 </v>
    <v>       0.12419561       0.37580728       0.87381671 </v>
    <v>       0.37503417       0.12502885       0.87560787 </v>
    <v>       0.37563654       0.37612402       0.62527934 </v>
    <v>       0.12513749       0.62596545       0.12532548 </v>
    <v>       0.12524765       0.87600883       0.37503915 </v>
    <v>       0.37533770       0.62442630       0.37512623 </v>
    <v>       0.37493615       0.87562171       0.12519717 </v>
    <v>       0.12611500       0.62560259       0.62424710 </v>
    <v>       0.12426654       0.87436460       0.87566475 </v>
    <v>       0.37514541       0.62460260       0.87471595 </v>
    <v>       0.37542621       0.87460448       0.62438994 </v>
    <v>       0.62503931       0.12499416       0.12643191 </v>
    <v>       0.62469890       0.37464273       0.37508811 </v>
    <v>       0.87583975       0.12497305       0.37463306 </v>
    <v>       0.87521954       0.37477423       0.12493493 </v>
    <v>       0.62481662       0.12452156       0.62466143 </v>
    <v>       0.62444872       0.37535812       0.87552389 </v>
    <v>       0.87426512       0.12549864       0.87403942 </v>
    <v>       0.87499278       0.37506075       0.62597685 </v>
    <v>       0.62441983       0.62549563       0.12449099 </v>
    <v>       0.62405333       0.87436240       0.37539951 </v>
    <v>       0.87618821       0.62279617       0.37528694 </v>
    <v>       0.87544721       0.87501086       0.12530053 </v>
    <v>       0.62489151       0.62464437       0.62544870 </v>
    <v>       0.62404260       0.87552116       0.87575429 </v>
    <v>       0.87559171       0.62421707       0.87598978 </v>
    <v>       0.87476653       0.87303097       0.62433601 </v>
    <v>       0.00036769       0.00034535       0.00011366 </v>
    <v>       0.00167928       0.25000285       0.24930952 </v>
    <v>       0.24919708       0.99986166       0.25127859 </v>
    <v>       0.24883376       0.24925426       0.99963632 </v>
    <v>       0.00022409       0.00130566       0.50029332 </v>
    <v>       0.99881920       0.24961185       0.75021849 </v>
    <v>       0.24982293       0.00031579       0.75089804 </v>
    <v>       0.24887076       0.24912089       0.50041931 </v>
    <v>       0.99972764       0.49969440       0.00012041 </v>
    <v>       0.99971713       0.75064350       0.25077622 </v>
    <v>       0.25034429       0.50137347       0.24986927 </v>
    <v>       0.25030881       0.75150090       0.00047253 </v>
    <v>       0.00027328       0.49982498       0.49927079 </v>
    <v>       0.00036557       0.74993226       0.74964471 </v>
    <v>       0.24988444       0.49983840       0.74862616 </v>
    <v>       0.25017939       0.74879235       0.50156572 </v>
    <v>       0.49996612       0.00101334       0.99924238 </v>
    <v>       0.49878797       0.24997340       0.24992427 </v>
    <v>       0.74870367       0.00118721       0.24929220 </v>
    <v>       0.75033036       0.24991313       0.00032759 </v>
    <v>       0.50108821       0.00113448       0.50088381 </v>
    <v>       0.49899432       0.24955179       0.74843160 </v>
    <v>       0.75038484       0.99987636       0.74976926 </v>
    <v>       0.75039631       0.24956556       0.49955747 </v>
    <v>       0.50056057       0.50018143       0.99904620 </v>
    <v>       0.49987478       0.75034141       0.25090503 </v>
    <v>       0.75031532       0.50055829       0.24988580 </v>
    <v>       0.74996665       0.75034518       0.99971551 </v>
    <v>       0.50069797       0.50016330       0.49854529 </v>
    <v>       0.49870091       0.75006061       0.74959224 </v>
    <v>       0.75025681       0.50099974       0.74981889 </v>
    <v>       0.75000714       0.74954642       0.49926125 </v>
   </varray>
  </structure>
  <varray name="primitive_index" >
   <v type="int" >        1 </v>
   <v type="int" >        2 </v>
   <v type="int" >        3 </v>
   <v type="int" >        4 </v>
   <v type="int" >        5 </v>
   <v type="int" >        6 </v>
   <v type="int" >        7 </v>
   <v type="int" >        8 </v>
   <v type="int" >        9 </v>
   <v type="int" >       10 </v>
   <v type="int" >       11 </v>
   <v type="int" >       12 </v>
   <v type="int" >       13 </v>
   <v type="int" >       14 </v>
   <v type="int" >       15 </v>
   <v type="int" >       16 </v>
   <v type="int" >       17 </v>
   <v type="int" >       18 </v>
   <v type="int" >       19 </v>
   <v type="int" >       20 </v>
   <v type="int" >       21 </v>
   <v type="int" >       22 </v>
   <v type="int" >       23 </v>
   <v type="int" >       24 </v>
   <v type="int" >       25 </v>
   <v type="int" >       26 </v>
   <v type="int" >       27 </v>
   <v type="int" >       28 </v>
   <v type="int" >       29 </v>
   <v type="int" >       30 </v>
   <v type="int" >       31 </v>
   <v type="int" >       32 </v>
   <v type="int" >       33 </v>
   <v type="int" >       34 </v>
   <v type="int" >       35 </v>
   <v type="int" >       36 </v>
   <v type="int" >       37 </v>
   <v type="int" >       38 </v>
   <v type="int" >       39 </v>
   <v type="int" >       40 </v>
   <v type="int" >       41 </v>
   <v type="int" >       42 </v>
   <v type="int" >       43 </v>
   <v type="int" >       44 </v>
   <v type="int" >       45 </v>
   <v type="int" >       46 </v>
   <v type="int" >       47 </v>
   <v type="int" >       48 </v>
   <v type="int" >       49 </v>
   <v type="int" >       50 </v>
   <v type="int" >       51 </v>
   <v type="int" >       52 </v>
   <v type="int" >       53 </v>
   <v type="int" >       54 </v>
   <v type="int" >       55 </v>
   <v type="int" >       56 </v>
   <v type="int" >       57 </v>
   <v type="int" >       58 </v>
   <v type="int" >       59 </v>
   <v type="int" >       60 </v>
   <v type="int" >       61 </v>
   <v type="int" >       62 </v>
   <v type="int" >       63 </v>
   <v type="int" >       64 </v>
  </varray>
 </primitive_cell>
 <kpoints>
  <generation param="Monkhorst-Pack">
   <v type="int" name="divisions">       3        3        3 </v>
   <v name="usershift">      0.00000000       0.00000000       0.00000000 </v>
   <v name="genvec1">      0.33333333       0.00000000       0.00000000 </v>
   <v name="genvec2">      0.00000000       0.33333333       0.00000000 </v>
   <v name="genvec3">      0.00000000       0.00000000       0.33333333 </v>
   <v name="shift">      0.00000000       0.00000000       0.00000000 </v>
  </generation>
  <varray name="kpointlist" >
   <v>       0.00000000       0.00000000       0.00000000 </v>
   <v>       0.33333333       0.00000000       0.00000000 </v>
   <v>       0.00000000       0.33333333       0.00000000 </v>
   <v>       0.00000000       0.00000000       0.33333333 </v>
   <v>       0.33333333       0.33333333       0.00000000 </v>
   <v>       0.00000000       0.33333333       0.33333333 </v>
   <v>       0.33333333       0.00000000       0.33333333 </v>
   <v>      -0.33333333       0.33333333       0.00000000 </v>
   <v>      -0.33333333       0.00000000       0.33333333 </v>
   <v>       0.00000000      -0.33333333       0.33333333 </v>
   <v>       0.33333333       0.33333333       0.33333333 </v>
   <v>      -0.33333333       0.33333333       0.33333333 </v>
   <v>      -0.33333333      -0.33333333       0.33333333 </v>
   <v>       0.33333333      -0.33333333       0.33333333 </v>
  </varray>
  <varray name="weights" >
   <v>       0.03703704 </v>
   <v>       0.07407407 </v>
   <v>       0.07407407 </v>
   <v>       0.07407407 </v>
   <v>       0.07407407 </v>
   <v>       0.07407407 </v>
   <v>       0.07407407 </v>
   <v>       0.07407407 </v>
   <v>       0.07407407 </v>
   <v>       0.07407407 </v>
   <v>       0.07407407 </v>
   <v>       0.07407407 </v>
   <v>       0.07407407 </v>
   <v>       0.07407407 </v>
  </varray>
 </kpoints>
 <parameters>
  <separator name="general" >
   <i type="string" name="SYSTEM">unknown system</i>
   <i type="logical" name="LCOMPAT"> F  </i>
  </separator>
  <separator name="electronic" >
   <i type="string" name="PREC">normal</i>
   <i name="ENMAX">    400.00000000</i>
   <i name="ENAUG">    644.87300000</i>
   <i name="EDIFF">      0.00000001</i>
   <i type="int" name="IALGO">    38</i>
   <i type="int" name="IWAVPR">    10</i>
   <i type="int" name="NBANDS">   168</i>
   <i type="int" name="NBANDSLOW">    -1</i>
   <i type="int" name="NBANDSHIGH">    -1</i>
   <i name="NELECT">    256.00000000</i>
   <i type="int" name="TURBO">     0</i>
   <i type="int" name="IRESTART">     0</i>
   <i type="int" name="NREBOOT">     0</i>
   <i type="int" name="NMIN">     0</i>
   <i name="EREF">      0.00000000</i>
   <separator name="electronic smearing" >
    <i type="int" name="ISMEAR">     1</i>
    <i name="SIGMA">      0.20000000</i>
    <i name="KSPACING">      0.50000000</i>
    <i type="logical" name="KGAMMA"> T  </i>
    <i type="logical" name="KBLOWUP"> T  </i>
   </separator>
   <separator name="electronic projectors" >
    <i type="logical" name="LREAL"> F  </i>
    <v name="ROPT">      0.00000000      0.00000000</v>
    <i type="int" name="LMAXPAW">  -100</i>
    <i type="int" name="LMAXMIX">     2</i>
    <i type="logical" name="NLSPLINE"> F  </i>
   </separator>
   <separator name="electronic startup" >
    <i type="int" name="ISTART">     0</i>
    <i type="int" name="ICHARG">     2</i>
    <i type="int" name="INIWAV">     1</i>
   </separator>
   <separator name="electronic spin" >
    <i type="int" name="ISPIN">     1</i>
    <i type="logical" name="LNONCOLLINEAR"> F  </i>
    <v name="MAGMOM">      1.00000000      1.00000000      1.00000000      1.00000000      1.00000000      1.00000000      1.00000000      1.00000000      1.00000000      1.00000000      1.00000000      1.00000000      1.00000000      1.00000000      1.00000000      1.00000000      1.00000000      1.00000000      1.00000000      1.00000000
      1.00000000      1.00000000      1.00000000      1.00000000      1.00000000      1.00000000      1.00000000      1.00000000      1.00000000      1.00000000      1.00000000      1.00000000      1.00000000      1.00000000      1.00000000      1.00000000      1.00000000      1.00000000      1.00000000      1.00000000
      1.00000000      1.00000000      1.00000000      1.00000000      1.00000000      1.00000000      1.00000000      1.00000000      1.00000000      1.00000000      1.00000000      1.00000000      1.00000000      1.00000000      1.00000000      1.00000000      1.00000000      1.00000000      1.00000000      1.00000000
      1.00000000      1.00000000      1.00000000      1.00000000</v>
    <i name="NUPDOWN">     -1.00000000</i>
    <i type="logical" name="LSORBIT"> F  </i>
    <v name="SAXIS">      0.00000000      0.00000000      1.00000000</v>
    <i type="logical" name="LSPIRAL"> F  </i>
    <v name="QSPIRAL">      0.00000000      0.00000000      0.00000000</v>
    <i type="logical" name="LZEROZ"> F  </i>
   </separator>
   <separator name="electronic exchange-correlation" >
    <i type="logical" name="LASPH"> F  </i>
    <i type="logical" name="LMETAGGA"> F  </i>
   </separator>
   <separator name="electronic convergence" >
    <i type="int" name="NELM">    60</i>
    <i type="int" name="NELMDL">    -5</i>
    <i type="int" name="NELMIN">     2</i>
    <i name="ENINI">    400.00000000</i>
    <separator name="electronic convergence detail" >
     <i type="logical" name="LDIAG"> T  </i>
     <i type="logical" name="LSUBROT"> F  </i>
     <i name="WEIMIN">      0.00000000</i>
     <i name="EBREAK">      0.00000000</i>
     <i name="DEPER">      0.30000000</i>
     <i type="int" name="NRMM">     4</i>
     <i name="TIME">      0.40000000</i>
    </separator>
   </separator>
   <separator name="electronic mixer" >
    <i name="AMIX">      0.40000000</i>
    <i name="BMIX">      1.00000000</i>
    <i name="AMIN">      0.10000000</i>
    <i name="AMIX_MAG">      1.60000000</i>
    <i name="BMIX_MAG">      1.00000000</i>
    <separator name="electronic mixer details" >
     <i type="int" name="IMIX">     4</i>
     <i type="logical" name="MIXFIRST"> F  </i>
     <i type="int" name="MAXMIX">   -45</i>
     <i name="WC">    100.00000000</i>
     <i type="int" name="INIMIX">     1</i>
     <i type="int" name="MIXPRE">     1</i>
     <i type="int" name="MREMOVE">     5</i>
    </separator>
   </separator>
   <separator name="electronic dipolcorrection" >
    <i type="logical" name="LDIPOL"> F  </i>
    <i type="logical" name="LMONO"> F  </i>
    <i type="int" name="IDIPOL">     0</i>
    <i name="EPSILON">      1.00000000</i>
    <v name="DIPOL">   -100.00000000   -100.00000000   -100.00000000</v>
    <i name="EFIELD">      0.00000000</i>
   </separator>
  </separator>
  <separator name="grids" >
   <i type="int" name="NGX">    48</i>
   <i type="int" name="NGY">    48</i>
   <i type="int" name="NGZ">    48</i>
   <i type="int" name="NGXF">    96</i>
   <i type="int" name="NGYF">    96</i>
   <i type="int" name="NGZF">    96</i>
   <i type="logical" name="ADDGRID"> F  </i>
  </separator>
  <separator name="ionic" >
   <i type="int" name="NSW">     0</i>
   <i type="int" name="IBRION">    -1</i>
   <i type="int" name="MDALGO">     0</i>
   <i type="int" name="ISIF">     3</i>
   <i name="PSTRESS">      0.00000000</i>
   <i name="EDIFFG">      0.00000010</i>
   <i type="int" name="NFREE">     0</i>
   <i name="POTIM">      0.50000000</i>
   <i name="SMASS">     -3.00000000</i>
   <i name="SCALEE">      1.00000000</i>
  </separator>
  <separator name="ionic md" >
   <i name="TEBEG">      0.00010000</i>
   <i name="TEEND">      0.00010000</i>
   <i type="int" name="NBLOCK">     1</i>
   <i type="int" name="KBLOCK">     1</i>
   <i type="int" name="NPACO">   256</i>
   <i name="APACO">     16.00000000</i>
  </separator>
  <separator name="symmetry" >
   <i type="int" name="ISYM">     0</i>
   <i name="SYMPREC">      0.00001000</i>
  </separator>
  <separator name="dos" >
   <i type="int" name="LORBIT">     0</i>
   <v name="RWIGS">     -1.00000000     -1.00000000</v>
   <i type="int" name="NEDOS">   301</i>
   <i name="EMIN">     10.00000000</i>
   <i name="EMAX">    -10.00000000</i>
   <i name="EFERMI">      0.00000000</i>
  </separator>
  <separator name="writing" >
   <i type="int" name="NWRITE">     2</i>
   <i type="logical" name="LWAVE"> F  </i>
   <i type="logical" name="LDOWNSAMPLE"> F  </i>
   <i type="logical" name="LCHARG"> F  </i>
   <i type="logical" name="LPARD"> F  </i>
   <i type="logical" name="LVTOT"> F  </i>
   <i type="logical" name="LVHAR"> F  </i>
   <i type="logical" name="LELF"> F  </i>
   <i type="logical" name="LOPTICS"> F  </i>
   <v name="STM">      0.00000000      0.00000000      0.00000000      0.00000000      0.00000000      0.00000000      0.00000000</v>
  </separator>
  <separator name="performance" >
   <i type="int" name="NPAR">     8</i>
   <i type="int" name="NSIM">     4</i>
   <i type="int" name="NBLK">    -1</i>
   <i type="logical" name="LPLANE"> T  </i>
   <i type="logical" name="LSCALAPACK"> T  </i>
   <i type="logical" name="LSCAAWARE"> F  </i>
   <i type="logical" name="LSCALU"> F  </i>
   <i type="logical" name="LASYNC"> F  </i>
   <i type="logical" name="LORBITALREAL"> F  </i>
  </separator>
  <separator name="miscellaneous" >
   <i type="int" name="IDIOT">     3</i>
   <i type="int" name="PHON_NSTRUCT">    -1</i>
   <i type="logical" name="LMUSIC"> F  </i>
   <v name="POMASS">     12.01100000     28.08500000</v>
   <v name="DARWINR">      0.00000000      0.00000000</v>
   <v name="DARWINV">      1.00000000      1.00000000</v>
   <i type="logical" name="LCORR"> T  </i>
  </separator>
  <i type="logical" name="GGA_COMPAT"> T  </i>
  <i type="logical" name="LBERRY"> F  </i>
  <i type="int" name="ICORELEVEL">     0</i>
  <i type="logical" name="LDAU"> F  </i>
  <i type="int" name="I_CONSTRAINED_M">     0</i>
  <separator name="electronic exchange-correlation" >
   <i type="string" name="GGA">PE</i>
   <i type="int" name="VOSKOWN">     0</i>
   <i type="logical" name="LHFCALC"> F  </i>
   <i type="string" name="PRECFOCK"></i>
   <i type="logical" name="LSYMGRAD"> F  </i>
   <i type="logical" name="LHFONE"> F  </i>
   <i type="logical" name="LRHFCALC"> F  </i>
   <i type="logical" name="LTHOMAS"> F  </i>
   <i type="logical" name="LMODELHF"> F  </i>
   <i type="logical" name="LFOCKACE"> F  </i>
   <i name="ENCUT4O">     -1.00000000</i>
   <i type="int" name="EXXOEP">     0</i>
   <i type="int" name="FOURORBIT">     0</i>
   <i name="AEXX">      0.00000000</i>
   <i name="HFALPHA">      0.00000000</i>
   <i name="MCALPHA">      0.00000000</i>
   <i name="ALDAX">      1.00000000</i>
   <i name="AGGAX">      1.00000000</i>
   <i name="ALDAC">      1.00000000</i>
   <i name="AGGAC">      1.00000000</i>
   <i type="int" name="NKREDX">     1</i>
   <i type="int" name="NKREDY">     1</i>
   <i type="int" name="NKREDZ">     1</i>
   <i type="logical" name="SHIFTRED"> F  </i>
   <i type="logical" name="ODDONLY"> F  </i>
   <i type="logical" name="EVENONLY"> F  </i>
   <i type="int" name="LMAXFOCK">     0</i>
   <i type="int" name="NMAXFOCKAE">     0</i>
   <i type="logical" name="LFOCKAEDFT"> F  </i>
   <i name="HFSCREEN">      0.00000000</i>
   <i name="HFSCREENC">      0.00000000</i>
   <i type="int" name="NBANDSGWLOW">     0</i>
  </separator>
  <separator name="vdW DFT" >
   <i type="logical" name="LUSE_VDW"> F  </i>
   <i name="Zab_VDW">     -0.84910000</i>
   <i name="PARAM1">      0.12340000</i>
   <i name="PARAM2">      1.00000000</i>
   <i name="PARAM3">      0.00000000</i>
  </separator>
  <separator name="model GW" >
   <i type="int" name="MODEL_GW">     0</i>
   <i name="MODEL_EPS0">      6.26613487</i>
   <i name="MODEL_ALPHA">      1.00000000</i>
  </separator>
  <separator name="linear response parameters" >
   <i type="logical" name="LEPSILON"> F  </i>
   <i type="logical" name="LRPA"> F  </i>
   <i type="logical" name="LNABLA"> F  </i>
   <i type="logical" name="LVEL"> F  </i>
   <i type="int" name="KINTER">     0</i>
   <i name="CSHIFT">      0.10000000</i>
   <i name="OMEGAMAX">     -1.00000000</i>
   <i name="DEG_THRESHOLD">      0.00200000</i>
   <i name="RTIME">     -0.10000000</i>
   <i name="WPLASMAI">      0.00000000</i>
   <v name="DFIELD">      0.00000000      0.00000000      0.00000000</v>
   <v name="WPLASMA">      0.00000000      0.00000000      0.00000000      0.00000000      0.00000000      0.00000000      0.00000000      0.00000000      0.00000000</v>
  </separator>
  <separator name="orbital magnetization" >
   <i type="logical" name="NUCIND"> F  </i>
   <v name="MAGPOS">      0.00000000      0.00000000      0.00000000</v>
   <i type="logical" name="LNICSALL"> T  </i>
   <i type="logical" name="ORBITALMAG"> F  </i>
   <i type="logical" name="LMAGBLOCH"> F  </i>
   <i type="logical" name="LCHIMAG"> F  </i>
   <i type="logical" name="LGAUGE"> T  </i>
   <i type="int" name="MAGATOM">     0</i>
   <v name="MAGDIPOL">      0.00000000      0.00000000      0.00000000</v>
   <v name="AVECCONST">      0.00000000      0.00000000      0.00000000</v>
  </separator>
  <separator name="response functions" >
   <i type="logical" name="LFINITE_TEMPERATURE"> F  </i>
   <i type="logical" name="LADDER"> F  </i>
   <i type="logical" name="LRPAFORCE"> F  </i>
   <i type="logical" name="LFXC"> F  </i>
   <i type="logical" name="LHARTREE"> T  </i>
   <i type="int" name="IBSE">     0</i>
   <v type="int" name="KPOINT">    -1     0     0     0</v>
   <i type="logical" name="LTCTC"> F  </i>
   <i type="logical" name="LTCTE"> F  </i>
   <i type="logical" name="LTETE"> F  </i>
   <i type="logical" name="LTRIPLET"> F  </i>
   <i type="logical" name="LFXCEPS"> F  </i>
   <i type="logical" name="LFXHEG"> F  </i>
   <i type="int" name="NATURALO">     2</i>
   <i type="logical" name="LHOLEGF"> F  </i>
   <i type="logical" name="L2ORDER"> F  </i>
   <i type="logical" name="LDMP1"> F  </i>
   <i type="logical" name="LMP2LT"> F  </i>
   <i type="logical" name="LSMP2LT"> F  </i>
   <i type="logical" name="LGWLF"> F  </i>
   <i name="ENCUTGW">     -2.00000000</i>
   <i name="ENCUTGWSOFT">     -2.00000000</i>
   <i name="ENCUTLF">     -1.00000000</i>
   <i type="logical" name="LESF_SPLINES"> F  </i>
   <i type="int" name="LMAXMP2">    -1</i>
   <i name="SCISSOR">      0.00000000</i>
   <i type="int" name="NOMEGA">     0</i>
   <i type="int" name="NOMEGAR">     0</i>
   <i type="int" name="NBANDSGW">    -1</i>
   <i type="int" name="NBANDSO">    -1</i>
   <i type="int" name="NBANDSV">    -1</i>
   <i type="int" name="NELM">    60</i>
   <i type="int" name="NELMHF">     1</i>
   <i type="int" name="DIM">     3</i>
   <i type="int" name="IESPILON">     4</i>
   <i type="int" name="ANTIRES">     0</i>
   <i name="OMEGAMAX">    -30.00000000</i>
   <i name="OMEGAMIN">    -30.00000000</i>
   <i name="OMEGATL">   -200.00000000</i>
   <i type="int" name="OMEGAGRID">     0</i>
   <i name="CSHIFT">     -0.10000000</i>
   <i type="logical" name="LSELFENERGY"> F  </i>
   <i type="logical" name="LSPECTRAL"> F  </i>
   <i type="logical" name="LSPECTRALGW"> F  </i>
   <i type="logical" name="LSINGLES"> F  </i>
   <i type="logical" name="LFERMIGW"> F  </i>
   <i type="logical" name="ODDONLYGW"> F  </i>
   <i type="logical" name="EVENONLYGW"> F  </i>
   <i type="int" name="NKREDLFX">     1</i>
   <i type="int" name="NKREDLFY">     1</i>
   <i type="int" name="NKREDLFZ">     1</i>
   <i type="int" name="MAXMEM">  2800</i>
   <i type="int" name="TELESCOPE">     0</i>
   <i type="int" name="NTAUPAR">    -1</i>
   <i type="int" name="NOMEGAPAR">    -1</i>
   <i name="DAMP_NEWTON">      0.80000001</i>
   <i name="LAMBDA">      1.00000000</i>
  </separator>
  <separator name="External order field" >
   <i name="OFIELD_KAPPA">      0.00000000</i>
   <v name="OFIELD_K">      0.00000000      0.00000000      0.00000000</v>
   <i name="OFIELD_Q6_NEAR">      0.00000000</i>
   <i name="OFIELD_Q6_FAR">      0.00000000</i>
   <i name="OFIELD_A">      0.00000000</i>
  </separator>
 </parameters>
 <atominfo>
  <atoms>      64 </atoms>
  <types>       2 </types>
  <array name="atoms" >
   <dimension dim="1">ion</dimension>
   <field type="string">element</field>
   <field type="int">atomtype</field>
   <set>
    <rc><c>C </c><c>   1</c></rc>
    <rc><c>C </c><c>   1</c></rc>
    <rc><c>C </c><c>   1</c></rc>
    <rc><c>C </c><c>   1</c></rc>
    <rc><c>C </c><c>   1</c></rc>
    <rc><c>C </c><c>   1</c></rc>
    <rc><c>C </c><c>   1</c></rc>
    <rc><c>C </c><c>   1</c></rc>
    <rc><c>C </c><c>   1</c></rc>
    <rc><c>C </c><c>   1</c></rc>
    <rc><c>C </c><c>   1</c></rc>
    <rc><c>C </c><c>   1</c></rc>
    <rc><c>C </c><c>   1</c></rc>
    <rc><c>C </c><c>   1</c></rc>
    <rc><c>C </c><c>   1</c></rc>
    <rc><c>C </c><c>   1</c></rc>
    <rc><c>C </c><c>   1</c></rc>
    <rc><c>C </c><c>   1</c></rc>
    <rc><c>C </c><c>   1</c></rc>
    <rc><c>C </c><c>   1</c></rc>
    <rc><c>C </c><c>   1</c></rc>
    <rc><c>C </c><c>   1</c></rc>
    <rc><c>C </c><c>   1</c></rc>
    <rc><c>C </c><c>   1</c></rc>
    <rc><c>C </c><c>   1</c></rc>
    <rc><c>C </c><c>   1</c></rc>
    <rc><c>C </c><c>   1</c></rc>
    <rc><c>C </c><c>   1</c></rc>
    <rc><c>C </c><c>   1</c></rc>
    <rc><c>C </c><c>   1</c></rc>
    <rc><c>C </c><c>   1</c></rc>
    <rc><c>C </c><c>   1</c></rc>
    <rc><c>Si</c><c>   2</c></rc>
    <rc><c>Si</c><c>   2</c></rc>
    <rc><c>Si</c><c>   2</c></rc>
    <rc><c>Si</c><c>   2</c></rc>
    <rc><c>Si</c><c>   2</c></rc>
    <rc><c>Si</c><c>   2</c></rc>
    <rc><c>Si</c><c>   2</c></rc>
    <rc><c>Si</c><c>   2</c></rc>
    <rc><c>Si</c><c>   2</c></rc>
    <rc><c>Si</c><c>   2</c></rc>
    <rc><c>Si</c><c>   2</c></rc>
    <rc><c>Si</c><c>   2</c></rc>
    <rc><c>Si</c><c>   2</c></rc>
    <rc><c>Si</c><c>   2</c></rc>
    <rc><c>Si</c><c>   2</c></rc>
    <rc><c>Si</c><c>   2</c></rc>
    <rc><c>Si</c><c>   2</c></rc>
    <rc><c>Si</c><c>   2</c></rc>
    <rc><c>Si</c><c>   2</c></rc>
    <rc><c>Si</c><c>   2</c></rc>
    <rc><c>Si</c><c>   2</c></rc>
    <rc><c>Si</c><c>   2</c></rc>
    <rc><c>Si</c><c>   2</c></rc>
    <rc><c>Si</c><c>   2</c></rc>
    <rc><c>Si</c><c>   2</c></rc>
    <rc><c>Si</c><c>   2</c></rc>
    <rc><c>Si</c><c>   2</c></rc>
    <rc><c>Si</c><c>   2</c></rc>
    <rc><c>Si</c><c>   2</c></rc>
    <rc><c>Si</c><c>   2</c></rc>
    <rc><c>Si</c><c>   2</c></rc>
    <rc><c>Si</c><c>   2</c></rc>
   </set>
  </array>
  <array name="atomtypes" >
   <dimension dim="1">type</dimension>
   <field type="int">atomspertype</field>
   <field type="string">element</field>
   <field>mass</field>
   <field>valence</field>
   <field type="string">pseudopotential</field>
   <set>
    <rc><c>  32</c><c>C </c><c>     12.01100000</c><c>      4.00000000</c><c>  PAW_PBE C 08Apr2002                   </c></rc>
    <rc><c>  32</c><c>Si</c><c>     28.08500000</c><c>      4.00000000</c><c>  PAW_PBE Si 05Jan2001                  </c></rc>
   </set>
  </array>
 </atominfo>
 <structure name="initialpos" >
  <crystal>
   <varray name="basis" >
    <v>       8.74331558       0.00000000       0.00000000 </v>
    <v>       0.00000000       8.74331558       0.00000000 </v>
    <v>       0.00000000       0.00000000       8.74331558 </v>
   </varray>
   <i name="volume">    668.38771987 </i>
   <varray name="rec_basis" >
    <v>       0.11437309       0.00000000       0.00000000 </v>
    <v>       0.00000000       0.11437309       0.00000000 </v>
    <v>       0.00000000       0.00000000       0.11437309 </v>
   </varray>
  </crystal>
  <varray name="positions" >
   <v>       0.12625527       0.12536416       0.12394863 </v>
   <v>       0.12470622       0.37501774       0.37512710 </v>
   <v>       0.37512145       0.12358695       0.37487138 </v>
   <v>       0.37406490       0.37574921       0.12523014 </v>
   <v>       0.12463551       0.12588893       0.62400419 </v>
   <v>       0.12419561       0.37580728       0.87381671 </v>
   <v>       0.37503417       0.12502885       0.87560787 </v>
   <v>       0.37563654       0.37612402       0.62527934 </v>
   <v>       0.12513749       0.62596545       0.12532548 </v>
   <v>       0.12524765       0.87600883       0.37503915 </v>
   <v>       0.37533770       0.62442630       0.37512623 </v>
   <v>       0.37493615       0.87562171       0.12519717 </v>
   <v>       0.12611500       0.62560259       0.62424710 </v>
   <v>       0.12426654       0.87436460       0.87566475 </v>
   <v>       0.37514541       0.62460260       0.87471595 </v>
   <v>       0.37542621       0.87460448       0.62438994 </v>
   <v>       0.62503931       0.12499416       0.12643191 </v>
   <v>       0.62469890       0.37464273       0.37508811 </v>
   <v>       0.87583975       0.12497305       0.37463306 </v>
   <v>       0.87521954       0.37477423       0.12493493 </v>
   <v>       0.62481662       0.12452156       0.62466143 </v>
   <v>       0.62444872       0.37535812       0.87552389 </v>
   <v>       0.87426512       0.12549864       0.87403942 </v>
   <v>       0.87499278       0.37506075       0.62597685 </v>
   <v>       0.62441983       0.62549563       0.12449099 </v>
   <v>       0.62405333       0.87436240       0.37539951 </v>
   <v>       0.87618821       0.62279617       0.37528694 </v>
   <v>       0.87544721       0.87501086       0.12530053 </v>
   <v>       0.62489151       0.62464437       0.62544870 </v>
   <v>       0.62404260       0.87552116       0.87575429 </v>
   <v>       0.87559171       0.62421707       0.87598978 </v>
   <v>       0.87476653       0.87303097       0.62433601 </v>
   <v>       0.00036769       0.00034535       0.00011366 </v>
   <v>       0.00167928       0.25000285       0.24930952 </v>
   <v>       0.24919708       0.99986166       0.25127859 </v>
   <v>       0.24883376       0.24925426       0.99963632 </v>
   <v>       0.00022409       0.00130566       0.50029332 </v>
   <v>       0.99881920       0.24961185       0.75021849 </v>
   <v>       0.24982293       0.00031579       0.75089804 </v>
   <v>       0.24887076       0.24912089       0.50041931 </v>
   <v>       0.99972764       0.49969440       0.00012041 </v>
   <v>       0.99971713       0.75064350       0.25077622 </v>
   <v>       0.25034429       0.50137347       0.24986927 </v>
   <v>       0.25030881       0.75150090       0.00047253 </v>
   <v>       0.00027328       0.49982498       0.49927079 </v>
   <v>       0.00036557       0.74993226       0.74964471 </v>
   <v>       0.24988444       0.49983840       0.74862616 </v>
   <v>       0.25017939       0.74879235       0.50156572 </v>
   <v>       0.49996612       0.00101334       0.99924238 </v>
   <v>       0.49878797       0.24997340       0.24992427 </v>
   <v>       0.74870367       0.00118721       0.24929220 </v>
   <v>       0.75033036       0.24991313       0.00032759 </v>
   <v>       0.50108821       0.00113448       0.50088381 </v>
   <v>       0.49899432       0.24955179       0.74843160 </v>
   <v>       0.75038484       0.99987636       0.74976926 </v>
   <v>       0.75039631       0.24956556       0.49955747 </v>
   <v>       0.50056057       0.50018143       0.99904620 </v>
   <v>       0.49987478       0.75034141       0.25090503 </v>
   <v>       0.75031532       0.50055829       0.24988580 </v>
   <v>       0.74996665       0.75034518       0.99971551 </v>
   <v>       0.50069797       0.50016330       0.49854529 </v>
   <v>       0.49870091       0.75006061       0.74959224 </v>
   <v>       0.75025681       0.50099974       0.74981889 </v>
   <v>       0.75000714       0.74954642       0.49926125 </v>
  </varray>
 </structure>
 <calculation>
  <scstep>
   <time name="dav">    4.82    4.82</time>
   <time name="total">    4.85    4.85</time>
   <energy>
    <i name="alphaZ">    354.85177120 </i>
    <i name="ewald">  -9084.39203322 </i>
    <i name="hartreedc">   -670.33127266 </i>
    <i name="XCdc">    145.82206176 </i>
    <i name="pawpsdc">   6292.66707184 </i>
    <i name="pawaedc">  -5747.90303932 </i>
    <i name="eentropy">      0.00950255 </i>
    <i name="bandstr">   1371.38496044 </i>
    <i name="atom">   8006.17504320 </i>
    <i name="e_fr_energy">    668.28406579 </i>
    <i name="e_wo_entrp">    668.27456324 </i>
    <i name="e_0_energy">    668.28089828 </i>
   </energy>
  </scstep>
  <scstep>
   <time name="dav">    5.65    5.66</time>
   <time name="total">    5.65    5.66</time>
   <energy>
    <i name="e_fr_energy">   -463.58085440 </i>
    <i name="e_wo_entrp">   -463.59591043 </i>
    <i name="e_0_energy">   -463.58587308 </i>
   </energy>
  </scstep>
  <scstep>
   <time name="dav">    5.54    5.54</time>
   <time name="total">    5.54    5.54</time>
   <energy>
    <i name="e_fr_energy">   -538.34217085 </i>
    <i name="e_wo_entrp">   -538.36114684 </i>
    <i name="e_0_energy">   -538.34849618 </i>
   </energy>
  </scstep>
  <scstep>
   <time name="dav">    5.53    5.53</time>
   <time name="total">    5.54    5.54</time>
   <energy>
    <i name="e_fr_energy">   -539.98357306 </i>
    <i name="e_wo_entrp">   -540.00305229 </i>
    <i name="e_0_energy">   -539.99006614 </i>
   </energy>
  </scstep>
  <scstep>
   <time name="dav">    5.44    5.44</time>
   <time name="total">    5.56    5.56</time>
   <energy>
    <i name="e_fr_energy">   -540.02966487 </i>
    <i name="e_wo_entrp">   -540.04910485 </i>
    <i name="e_0_energy">   -540.03614486 </i>
   </energy>
  </scstep>
  <scstep>
   <time name="dav">    5.28    5.28</time>
   <time name="total">    5.69    5.70</time>
   <energy>
    <i name="e_fr_energy">   -483.60455616 </i>
    <i name="e_wo_entrp">   -483.61449673 </i>
    <i name="e_0_energy">   -483.60786968 </i>
   </energy>
  </scstep>
  <scstep>
   <time name="dav">    5.73    5.73</time>
   <time name="total">    5.89    5.89</time>
   <energy>
    <i name="e_fr_energy">   -482.23326221 </i>
    <i name="e_wo_entrp">   -482.24226616 </i>
    <i name="e_0_energy">   -482.23626353 </i>
   </energy>
  </scstep>
  <scstep>
   <time name="dav">    5.28    5.28</time>
   <time name="total">    5.48    5.48</time>
   <energy>
    <i name="e_fr_energy">   -482.00720086 </i>
    <i name="e_wo_entrp">   -482.01640483 </i>
    <i name="e_0_energy">   -482.01026885 </i>
   </energy>
  </scstep>
  <scstep>
   <time name="dav">    5.32    5.32</time>
   <time name="total">    5.48    5.48</time>
   <energy>
    <i name="e_fr_energy">   -481.99113014 </i>
    <i name="e_wo_entrp">   -482.00023378 </i>
    <i name="e_0_energy">   -481.99416468 </i>
   </energy>
  </scstep>
  <scstep>
   <time name="dav">    5.49    5.49</time>
   <time name="total">    5.65    5.65</time>
   <energy>
    <i name="e_fr_energy">   -481.99479220 </i>
    <i name="e_wo_entrp">   -482.00388259 </i>
    <i name="e_0_energy">   -481.99782233 </i>
   </energy>
  </scstep>
  <scstep>
   <time name="dav">    5.12    5.12</time>
   <time name="total">    5.28    5.28</time>
   <energy>
    <i name="e_fr_energy">   -481.99535681 </i>
    <i name="e_wo_entrp">   -482.00445306 </i>
    <i name="e_0_energy">   -481.99838889 </i>
   </energy>
  </scstep>
  <scstep>
   <time name="dav">    5.51    5.51</time>
   <time name="total">    5.67    5.67</time>
   <energy>
    <i name="e_fr_energy">   -481.99536191 </i>
    <i name="e_wo_entrp">   -482.00445788 </i>
    <i name="e_0_energy">   -481.99839390 </i>
   </energy>
  </scstep>
  <scstep>
   <time name="dav">    5.28    5.28</time>
   <time name="total">    5.44    5.44</time>
   <energy>
    <i name="e_fr_energy">   -481.99536503 </i>
    <i name="e_wo_entrp">   -482.00446116 </i>
    <i name="e_0_energy">   -481.99839707 </i>
   </energy>
  </scstep>
  <scstep>
   <time name="dav">    5.45    5.45</time>
   <time name="total">    5.63    5.64</time>
   <energy>
    <i name="e_fr_energy">   -481.99537014 </i>
    <i name="e_wo_entrp">   -482.00446651 </i>
    <i name="e_0_energy">   -481.99840226 </i>
   </energy>
  </scstep>
  <scstep>
   <time name="dav">    5.27    5.27</time>
   <time name="total">    5.43    5.43</time>
   <energy>
    <i name="e_fr_energy">   -481.99537156 </i>
    <i name="e_wo_entrp">   -482.00446780 </i>
    <i name="e_0_energy">   -481.99840364 </i>
   </energy>
  </scstep>
  <scstep>
   <time name="dav">    4.27    4.27</time>
   <time name="total">    4.43    4.43</time>
   <energy>
    <i name="e_fr_energy">   -481.99537179 </i>
    <i name="e_wo_entrp">   -482.00446802 </i>
    <i name="e_0_energy">   -481.99840387 </i>
   </energy>
  </scstep>
  <scstep>
   <time name="dav">    3.57    3.57</time>
   <time name="total">    3.73    3.74</time>
   <energy>
    <i name="e_fr_energy">   -481.99537152 </i>
    <i name="e_wo_entrp">   -482.00446773 </i>
    <i name="e_0_energy">   -481.99840359 </i>
   </energy>
  </scstep>
  <scstep>
   <time name="dav">    3.40    3.40</time>
   <time name="total">    3.56    3.56</time>
   <energy>
    <i name="e_fr_energy">   -481.99537159 </i>
    <i name="e_wo_entrp">   -482.00446780 </i>
    <i name="e_0_energy">   -481.99840366 </i>
   </energy>
  </scstep>
  <scstep>
   <time name="dav">    3.34    3.34</time>
   <time name="total">    3.53    3.53</time>
   <energy>
    <i name="e_fr_energy">   -481.99537158 </i>
    <i name="e_wo_entrp">   -482.00446778 </i>
    <i name="e_0_energy">   -481.99840365 </i>
   </energy>
  </scstep>
  <scstep>
   <time name="dav">    3.32    3.32</time>
   <time name="total">    3.34    3.34</time>
   <energy>
    <i name="alphaZ">    354.85177120 </i>
    <i name="ewald">  -9084.39203322 </i>
    <i name="hartreedc">  -1022.81212016 </i>
    <i name="XCdc">    179.26392034 </i>
    <i name="pawpsdc">  32980.35141863 </i>
    <i name="pawaedc"> -32441.26620398 </i>
    <i name="eentropy">      0.00909621 </i>
    <i name="bandstr">    545.82373621 </i>
    <i name="atom">   8006.17504320 </i>
    <i name="e_fr_energy">   -481.99537157 </i>
    <i name="e_wo_entrp">   -482.00446778 </i>
    <i name="e_0_energy">   -481.99840364 </i>
   </energy>
  </scstep>
  <structure>
   <crystal>
    <varray name="basis" >
     <v>       8.74331558       0.00000000       0.00000000 </v>
     <v>       0.00000000       8.74331558       0.00000000 </v>
     <v>       0.00000000       0.00000000       8.74331558 </v>
    </varray>
    <i name="volume">    668.38771987 </i>
    <varray name="rec_basis" >
     <v>       0.11437309       0.00000000       0.00000000 </v>
     <v>       0.00000000       0.11437309       0.00000000 </v>
     <v>       0.00000000       0.00000000       0.11437309 </v>
    </varray>
   </crystal>
   <varray name="positions" >
    <v>       0.12625527       0.12536416       0.12394863 </v>
    <v>       0.12470622       0.37501774       0.37512710 </v>
    <v>       0.37512145       0.12358695       0.37487138 </v>
    <v>       0.37406490       0.37574921       0.12523014 </v>
    <v>       0.12463551       0.12588893       0.62400419 </v>
    <v>       0.12419561       0.37580728       0.87381671 </v>
    <v>       0.37503417       0.12502885       0.87560787 </v>
    <v>       0.37563654       0.37612402       0.62527934 </v>
    <v>       0.12513749       0.62596545       0.12532548 </v>
    <v>       0.12524765       0.87600883       0.37503915 </v>
    <v>       0.37533770       0.62442630       0.37512623 </v>
    <v>       0.37493615       0.87562171       0.12519717 </v>
    <v>       0.12611500       0.62560259       0.62424710 </v>
    <v>       0.12426654       0.87436460       0.87566475 </v>
    <v>       0.37514541       0.62460260       0.87471595 </v>
    <v>       0.37542621       0.87460448       0.62438994 </v>
    <v>       0.62503931       0.12499416       0.12643191 </v>
    <v>       0.62469890       0.37464273       0.37508811 </v>
    <v>       0.87583975       0.12497305       0.37463306 </v>
    <v>       0.87521954       0.37477423       0.12493493 </v>
    <v>       0.62481662       0.12452156       0.62466143 </v>
    <v>       0.62444872       0.37535812       0.87552389 </v>
    <v>       0.87426512       0.12549864       0.87403942 </v>
    <v>       0.87499278       0.37506075       0.62597685 </v>
    <v>       0.62441983       0.62549563       0.12449099 </v>
    <v>       0.62405333       0.87436240       0.37539951 </v>
    <v>       0.87618821       0.62279617       0.37528694 </v>
    <v>       0.87544721       0.87501086       0.12530053 </v>
    <v>       0.62489151       0.62464437       0.62544870 </v>
    <v>       0.62404260       0.87552116       0.87575429 </v>
    <v>       0.87559171       0.62421707       0.87598978 </v>
    <v>       0.87476653       0.87303097       0.62433601 </v>
    <v>       0.00036769       0.00034535       0.00011366 </v>
    <v>       0.00167928       0.25000285       0.24930952 </v>
    <v>       0.24919708       0.99986166       0.25127859 </v>
    <v>       0.24883376       0.24925426       0.99963632 </v>
    <v>       0.00022409       0.00130566       0.50029332 </v>
    <v>       0.99881920       0.24961185       0.75021849 </v>
    <v>       0.24982293       0.00031579       0.75089804 </v>
    <v>       0.24887076       0.24912089       0.50041931 </v>
    <v>       0.99972764       0.49969440       0.00012041 </v>
    <v>       0.99971713       0.75064350       0.25077622 </v>
    <v>       0.25034429       0.50137347       0.24986927 </v>
    <v>       0.25030881       0.75150090       0.00047253 </v>
    <v>       0.00027328       0.49982498       0.49927079 </v>
    <v>       0.00036557       0.74993226       0.74964471 </v>
    <v>       0.24988444       0.49983840       0.74862616 </v>
    <v>       0.25017939       0.74879235       0.50156572 </v>
    <v>       0.49996612       0.00101334       0.99924238 </v>
    <v>       0.49878797       0.24997340       0.24992427 </v>
    <v>       0.74870367       0.00118721       0.24929220 </v>
    <v>       0.75033036       0.24991313       0.00032759 </v>
    <v>       0.50108821       0.00113448       0.50088381 </v>
    <v>       0.49899432       0.24955179       0.74843160 </v>
    <v>       0.75038484       0.99987636       0.74976926 </v>
    <v>       0.75039631       0.24956556       0.49955747 </v>
    <v>       0.50056057       0.50018143       0.99904620 </v>
    <v>       0.49987478       0.75034141       0.25090503 </v>
    <v>       0.75031532       0.50055829       0.24988580 </v>
    <v>       0.74996665       0.75034518       0.99971551 </v>
    <v>       0.50069797       0.50016330       0.49854529 </v>
    <v>       0.49870091       0.75006061       0.74959224 </v>
    <v>       0.75025681       0.50099974       0.74981889 </v>
    <v>       0.75000714       0.74954642       0.49926125 </v>
   </varray>
  </structure>
  <varray name="forces" >
   <v>      -0.22655871      -0.14265186       0.20097252 </v>
   <v>       0.18644084       0.00294499      -0.07262159 </v>
   <v>      -0.08081384       0.27658572       0.16646373 </v>
   <v>       0.08001750      -0.12391317      -0.15521315 </v>
   <v>      -0.01690598      -0.18647789       0.42138729 </v>
   <v>       0.08309564      -0.22046931       0.11553483 </v>
   <v>      -0.07614502       0.07465651      -0.21459020 </v>
   <v>      -0.16952638      -0.27762138      -0.29622820 </v>
   <v>      -0.05869551      -0.04088807      -0.03470752 </v>
   <v>      -0.08399378      -0.23478321       0.23042175 </v>
   <v>      -0.05156218       0.16475812       0.03237697 </v>
   <v>       0.02691817       0.06112360       0.04512237 </v>
   <v>      -0.28620305      -0.19033832       0.11602976 </v>
   <v>       0.09821021       0.22193998      -0.17564279 </v>
   <v>      -0.17960584       0.13188116       0.01251001 </v>
   <v>      -0.13026422       0.21823143       0.17670217 </v>
   <v>      -0.12775662       0.15535651      -0.35947807 </v>
   <v>       0.10113659       0.00015130      -0.12470417 </v>
   <v>      -0.11100667       0.04265407      -0.04529542 </v>
   <v>       0.03941509      -0.02417673       0.03787258 </v>
   <v>       0.16210632       0.12621418       0.06549046 </v>
   <v>       0.12795982      -0.20234026      -0.21546107 </v>
   <v>       0.12522276      -0.19966202       0.21834545 </v>
   <v>      -0.03652865       0.02060656      -0.24019061 </v>
   <v>       0.13969019      -0.00876273       0.14791039 </v>
   <v>       0.25618432       0.19835775      -0.03595139 </v>
   <v>      -0.22776848       0.44069300      -0.08787647 </v>
   <v>      -0.17330078       0.13577008      -0.01632272 </v>
   <v>       0.00950130       0.14106663      -0.16558387 </v>
   <v>       0.15900645      -0.03910099      -0.23908093 </v>
   <v>      -0.08462322       0.23590411      -0.21869729 </v>
   <v>       0.10167626       0.39846262       0.06749094 </v>
   <v>      -0.14957302      -0.05131828      -0.02094714 </v>
   <v>      -0.24196354       0.04685805       0.05183287 </v>
   <v>       0.23239482      -0.03374909      -0.27817357 </v>
   <v>       0.24747308       0.43308554      -0.06257600 </v>
   <v>      -0.09493412      -0.34741138      -0.08588156 </v>
   <v>       0.16981912       0.20890250      -0.09053275 </v>
   <v>      -0.01726267      -0.13786704      -0.20223109 </v>
   <v>       0.35652940       0.28972839      -0.16678106 </v>
   <v>       0.15835211       0.09730148       0.06897788 </v>
   <v>       0.10486617      -0.08841336      -0.06111610 </v>
   <v>      -0.12069551      -0.19066164       0.01084304 </v>
   <v>       0.03349696      -0.32831132      -0.03330981 </v>
   <v>       0.03158003      -0.13909788       0.26766279 </v>
   <v>      -0.06301876      -0.14492556       0.10879942 </v>
   <v>       0.06355059       0.07823112       0.27627416 </v>
   <v>       0.08851977       0.34865374      -0.44159869 </v>
   <v>       0.00735479      -0.14914005       0.32447643 </v>
   <v>       0.04505991       0.08344074       0.02835932 </v>
   <v>       0.26867943      -0.34446669       0.24282127 </v>
   <v>      -0.18254303       0.10247957      -0.03218262 </v>
   <v>      -0.24980209      -0.35882189      -0.20486023 </v>
   <v>       0.21035445       0.21112617       0.33998558 </v>
   <v>      -0.14859373      -0.18287151       0.00192797 </v>
   <v>       0.00941577       0.16014944       0.04949782 </v>
   <v>      -0.21148105      -0.03445253       0.18420002 </v>
   <v>      -0.08368320      -0.02865075      -0.23230391 </v>
   <v>      -0.11723354      -0.18585742      -0.08335012 </v>
   <v>       0.00571606      -0.01056473       0.06988232 </v>
   <v>      -0.03463715      -0.06390984       0.29360395 </v>
   <v>       0.23737028      -0.03995957       0.11074449 </v>
   <v>      -0.08713631      -0.21594837       0.14866365 </v>
   <v>      -0.04329756      -0.13973025       0.06030588 </v>
  </varray>
  <varray name="stress" >
   <v>       0.38932005      -0.63780316       1.21667289 </v>
   <v>      -0.63780315       0.30800848      -0.47679068 </v>
   <v>       1.21667288      -0.47679069       0.32190327 </v>
  </varray>
  <energy>
   <i name="e_fr_energy">   -481.99537157 </i>
   <i name="e_wo_entrp">   -482.00446778 </i>
   <i name="e_0_energy">   -481.99840364 </i>
  </energy>
  <time name="totalsc">  109.35  109.41</time>
  <eigenvalues>
   <array>
    <dimension dim="1">band</dimension>
    <dimension dim="2">kpoint</dimension>
    <dimension dim="3">spin</dimension>
    <field>eigene</field>
    <field>occ</field>
    <set>
     <set comment="spin 1">
      <set comment="kpoint 1">
       <r>   -7.3314    1.0000 </r>
       <r>   -5.7759    1.0000 </r>
       <r>   -5.7550    1.0000 </r>
       <r>   -5.7504    1.0000 </r>
       <r>   -5.7408    1.0000 </r>
       <r>   -5.7366    1.0000 </r>
       <r>   -5.7197    1.0000 </r>
       <r>   -4.3792    1.0000 </r>
       <r>   -4.3748    1.0000 </r>
       <r>   -4.3619    1.0000 </r>
       <r>   -4.3502    1.0000 </r>
       <r>   -4.3471    1.0000 </r>
       <r>   -4.3372    1.0000 </r>
       <r>   -4.3245    1.0000 </r>
       <r>   -4.3176    1.0000 </r>
       <r>   -4.3137    1.0000 </r>
       <r>   -4.3005    1.0000 </r>
       <r>   -4.2968    1.0000 </r>
       <r>   -4.2933    1.0000 </r>
       <r>   -3.8229    1.0000 </r>
       <r>   -3.8146    1.0000 </r>
       <r>   -3.7840    1.0000 </r>
       <r>   -3.7764    1.0000 </r>
       <r>   -2.3840    1.0000 </r>
       <r>   -2.3606    1.0000 </r>
       <r>   -2.3423    1.0000 </r>
       <r>   -2.1681    1.0000 </r>
       <r>   -2.1405    1.0000 </r>
       <r>   -2.1370    1.0000 </r>
       <r>   -2.1222    1.0000 </r>
       <r>   -2.1213    1.0000 </r>
       <r>   -2.1075    1.0000 </r>
       <r>   -0.5037    1.0000 </r>
       <r>   -0.4946    1.0000 </r>
       <r>   -0.4721    1.0000 </r>
       <r>   -0.4607    1.0000 </r>
       <r>    0.2303    1.0000 </r>
       <r>    0.2365    1.0000 </r>
       <r>    0.2391    1.0000 </r>
       <r>    0.9833    1.0000 </r>
       <r>    0.9862    1.0000 </r>
       <r>    0.9911    1.0000 </r>
       <r>    0.9982    1.0000 </r>
       <r>    1.0015    1.0000 </r>
       <r>    1.0040    1.0000 </r>
       <r>    2.0350    1.0000 </r>
       <r>    2.0518    1.0000 </r>
       <r>    2.0561    1.0000 </r>
       <r>    2.0699    1.0000 </r>
       <r>    2.0741    1.0000 </r>
       <r>    2.0780    1.0000 </r>
       <r>    2.0809    1.0000 </r>
       <r>    2.0912    1.0000 </r>
       <r>    2.0935    1.0000 </r>
       <r>    2.1015    1.0000 </r>
       <r>    2.1046    1.0000 </r>
       <r>    2.1183    1.0000 </r>
       <r>    3.0379    1.0000 </r>
       <r>    3.0493    1.0000 </r>
       <r>    3.0531    1.0000 </r>
       <r>    3.0588    1.0000 </r>
       <r>    3.0601    1.0000 </r>
       <r>    3.0729    1.0000 </r>
       <r>    3.3402    1.0000 </r>
       <r>    3.3461    1.0000 </r>
       <r>    3.3492    1.0000 </r>
       <r>    3.3536    1.0000 </r>
       <r>    3.3546    1.0000 </r>
       <r>    3.3633    1.0000 </r>
       <r>    3.6610    1.0000 </r>
       <r>    3.6618    1.0000 </r>
       <r>    3.6662    1.0000 </r>
       <r>    3.6735    1.0000 </r>
       <r>    3.6866    1.0000 </r>
       <r>    3.6918    1.0000 </r>
       <r>    3.6948    1.0000 </r>
       <r>    3.7012    1.0000 </r>
       <r>    3.7048    1.0000 </r>
       <r>    3.7100    1.0000 </r>
       <r>    3.7170    1.0000 </r>
       <r>    3.7263    1.0000 </r>
       <r>    4.6316    1.0000 </r>
       <r>    4.6404    1.0000 </r>
       <r>    4.6437    1.0000 </r>
       <r>    4.6576    1.0000 </r>
       <r>    4.6632    1.0000 </r>
       <r>    4.6758    1.0000 </r>
       <r>    4.8240    1.0000 </r>
       <r>    4.8250    1.0000 </r>
       <r>    4.8314    1.0000 </r>
       <r>    4.8370    1.0000 </r>
       <r>    4.8433    1.0000 </r>
       <r>    4.8454    1.0000 </r>
       <r>    6.0354    1.0000 </r>
       <r>    6.0562    1.0000 </r>
       <r>    6.0624    1.0000 </r>
       <r>    6.0682    1.0000 </r>
       <r>    6.0730    1.0000 </r>
       <r>    6.0776    1.0000 </r>
       <r>    6.0843    1.0000 </r>
       <r>    6.0906    1.0000 </r>
       <r>    6.0947    1.0000 </r>
       <r>    6.0967    1.0000 </r>
       <r>    6.1114    1.0000 </r>
       <r>    6.1163    1.0000 </r>
       <r>    6.7694    1.0000 </r>
       <r>    6.7888    1.0000 </r>
       <r>    6.8015    1.0000 </r>
       <r>    6.8038    1.0000 </r>
       <r>    6.8126    1.0000 </r>
       <r>    6.8171    1.0000 </r>
       <r>    6.8238    1.0000 </r>
       <r>    6.8321    1.0000 </r>
       <r>    6.8416    1.0000 </r>
       <r>    6.8449    1.0000 </r>
       <r>    6.8500    1.0000 </r>
       <r>    6.8566    1.0000 </r>
       <r>    6.9181    1.0000 </r>
       <r>    6.9382    1.0000 </r>
       <r>    6.9476    1.0000 </r>
       <r>    6.9524    1.0000 </r>
       <r>    6.9649    1.0000 </r>
       <r>    6.9680    1.0000 </r>
       <r>    6.9811    1.0000 </r>
       <r>    6.9882    1.0000 </r>
       <r>    7.9979    0.9559 </r>
       <r>    8.0128    0.9262 </r>
       <r>    8.0203    0.9093 </r>
       <r>    9.3399   -0.0000 </r>
       <r>    9.3667   -0.0000 </r>
       <r>    9.3946   -0.0000 </r>
       <r>   11.9965   -0.0000 </r>
       <r>   12.0237   -0.0000 </r>
       <r>   12.0270   -0.0000 </r>
       <r>   12.0300   -0.0000 </r>
       <r>   12.0398   -0.0000 </r>
       <r>   12.0501   -0.0000 </r>
       <r>   12.2832   -0.0000 </r>
       <r>   12.2892   -0.0000 </r>
       <r>   12.3041   -0.0000 </r>
       <r>   13.1605   -0.0000 </r>
       <r>   13.1865   -0.0000 </r>
       <r>   13.1921   -0.0000 </r>
       <r>   13.2007   -0.0000 </r>
       <r>   13.2037   -0.0000 </r>
       <r>   13.2286   -0.0000 </r>
       <r>   13.3420   -0.0000 </r>
       <r>   13.3434   -0.0000 </r>
       <r>   13.3481   -0.0000 </r>
       <r>   13.3502   -0.0000 </r>
       <r>   13.4600   -0.0000 </r>
       <r>   13.4655   -0.0000 </r>
       <r>   13.4722   -0.0000 </r>
       <r>   13.4843   -0.0000 </r>
       <r>   13.4957   -0.0000 </r>
       <r>   13.5044   -0.0000 </r>
       <r>   13.5065   -0.0000 </r>
       <r>   13.5139   -0.0000 </r>
       <r>   13.5178   -0.0000 </r>
       <r>   13.5214   -0.0000 </r>
       <r>   13.5256   -0.0000 </r>
       <r>   13.5413   -0.0000 </r>
       <r>   14.1170    0.0000 </r>
       <r>   14.2664    0.0000 </r>
       <r>   14.2901    0.0000 </r>
       <r>   14.3018    0.0000 </r>
       <r>   14.3177    0.0000 </r>
       <r>   14.3189    0.0000 </r>
      </set>
      <set comment="kpoint 2">
       <r>   -7.1518    1.0000 </r>
       <r>   -6.6175    1.0000 </r>
       <r>   -5.6106    1.0000 </r>
       <r>   -5.5807    1.0000 </r>
       <r>   -5.5759    1.0000 </r>
       <r>   -5.5587    1.0000 </r>
       <r>   -5.1258    1.0000 </r>
       <r>   -5.0960    1.0000 </r>
       <r>   -5.0911    1.0000 </r>
       <r>   -5.0741    1.0000 </r>
       <r>   -4.5798    1.0000 </r>
       <r>   -4.2498    1.0000 </r>
       <r>   -4.2410    1.0000 </r>
       <r>   -4.2040    1.0000 </r>
       <r>   -4.1999    1.0000 </r>
       <r>   -3.9884    1.0000 </r>
       <r>   -3.9783    1.0000 </r>
       <r>   -3.9441    1.0000 </r>
       <r>   -3.9385    1.0000 </r>
       <r>   -3.4210    1.0000 </r>
       <r>   -3.3895    1.0000 </r>
       <r>   -3.3819    1.0000 </r>
       <r>   -3.3663    1.0000 </r>
       <r>   -3.2350    1.0000 </r>
       <r>   -2.5465    1.0000 </r>
       <r>   -2.5141    1.0000 </r>
       <r>   -2.5050    1.0000 </r>
       <r>   -2.4886    1.0000 </r>
       <r>   -2.3103    1.0000 </r>
       <r>   -2.3029    1.0000 </r>
       <r>   -2.1966    1.0000 </r>
       <r>   -2.1887    1.0000 </r>
       <r>   -0.0398    1.0000 </r>
       <r>   -0.0293    1.0000 </r>
       <r>   -0.0040    1.0000 </r>
       <r>    0.0062    1.0000 </r>
       <r>    0.3721    1.0000 </r>
       <r>    0.3797    1.0000 </r>
       <r>    0.7297    1.0000 </r>
       <r>    0.7402    1.0000 </r>
       <r>    1.0469    1.0000 </r>
       <r>    1.0516    1.0000 </r>
       <r>    1.0624    1.0000 </r>
       <r>    1.0682    1.0000 </r>
       <r>    1.0909    1.0000 </r>
       <r>    1.0989    1.0000 </r>
       <r>    1.1246    1.0000 </r>
       <r>    1.1305    1.0000 </r>
       <r>    1.2443    1.0000 </r>
       <r>    1.3868    1.0000 </r>
       <r>    1.4027    1.0000 </r>
       <r>    1.4129    1.0000 </r>
       <r>    1.4194    1.0000 </r>
       <r>    2.7082    1.0000 </r>
       <r>    2.7136    1.0000 </r>
       <r>    2.7193    1.0000 </r>
       <r>    2.7321    1.0000 </r>
       <r>    2.9425    1.0000 </r>
       <r>    2.9628    1.0000 </r>
       <r>    2.9728    1.0000 </r>
       <r>    2.9795    1.0000 </r>
       <r>    2.9912    1.0000 </r>
       <r>    3.0043    1.0000 </r>
       <r>    3.0105    1.0000 </r>
       <r>    3.0243    1.0000 </r>
       <r>    3.0303    1.0000 </r>
       <r>    3.5275    1.0000 </r>
       <r>    3.5283    1.0000 </r>
       <r>    3.6529    1.0000 </r>
       <r>    3.6538    1.0000 </r>
       <r>    4.0150    1.0000 </r>
       <r>    4.0299    1.0000 </r>
       <r>    4.0415    1.0000 </r>
       <r>    4.0480    1.0000 </r>
       <r>    4.3639    1.0000 </r>
       <r>    4.3674    1.0000 </r>
       <r>    4.3899    1.0000 </r>
       <r>    4.3944    1.0000 </r>
       <r>    4.4357    1.0000 </r>
       <r>    4.4475    1.0000 </r>
       <r>    4.4565    1.0000 </r>
       <r>    4.4605    1.0000 </r>
       <r>    4.6325    1.0000 </r>
       <r>    4.6514    1.0000 </r>
       <r>    4.6552    1.0000 </r>
       <r>    4.6763    1.0000 </r>
       <r>    4.7899    1.0000 </r>
       <r>    4.8002    1.0000 </r>
       <r>    4.8339    1.0000 </r>
       <r>    4.8378    1.0000 </r>
       <r>    4.9801    1.0000 </r>
       <r>    4.9832    1.0000 </r>
       <r>    5.4083    1.0000 </r>
       <r>    5.4110    1.0000 </r>
       <r>    5.5953    1.0000 </r>
       <r>    5.6179    1.0000 </r>
       <r>    5.6223    1.0000 </r>
       <r>    5.6430    1.0000 </r>
       <r>    5.8773    1.0000 </r>
       <r>    5.8901    1.0000 </r>
       <r>    5.9015    1.0000 </r>
       <r>    5.9070    1.0000 </r>
       <r>    6.1971    1.0000 </r>
       <r>    6.2535    1.0000 </r>
       <r>    6.2681    1.0000 </r>
       <r>    6.3005    1.0000 </r>
       <r>    6.3038    1.0000 </r>
       <r>    6.4548    1.0000 </r>
       <r>    6.4764    1.0000 </r>
       <r>    6.4894    1.0000 </r>
       <r>    6.5016    1.0000 </r>
       <r>    6.8335    1.0000 </r>
       <r>    6.8418    1.0000 </r>
       <r>    6.8487    1.0000 </r>
       <r>    6.8667    1.0000 </r>
       <r>    6.8762    1.0000 </r>
       <r>    6.8913    1.0000 </r>
       <r>    6.8937    1.0000 </r>
       <r>    6.9067    1.0000 </r>
       <r>    6.9104    1.0000 </r>
       <r>    6.9181    1.0000 </r>
       <r>    6.9287    1.0000 </r>
       <r>    6.9349    1.0000 </r>
       <r>    6.9389    1.0000 </r>
       <r>    6.9560    1.0000 </r>
       <r>    7.4581    1.0000 </r>
       <r>    7.6651    1.0022 </r>
       <r>    7.6703    1.0024 </r>
       <r>    9.6886   -0.0000 </r>
       <r>   10.2080   -0.0000 </r>
       <r>   10.2173   -0.0000 </r>
       <r>   10.6322   -0.0000 </r>
       <r>   11.9800   -0.0000 </r>
       <r>   11.9879   -0.0000 </r>
       <r>   12.5092   -0.0000 </r>
       <r>   12.6516   -0.0000 </r>
       <r>   12.6668   -0.0000 </r>
       <r>   12.6730   -0.0000 </r>
       <r>   12.6853   -0.0000 </r>
       <r>   12.9767   -0.0000 </r>
       <r>   12.9942   -0.0000 </r>
       <r>   13.0021   -0.0000 </r>
       <r>   13.0207   -0.0000 </r>
       <r>   13.0711   -0.0000 </r>
       <r>   13.0807   -0.0000 </r>
       <r>   13.0935   -0.0000 </r>
       <r>   13.1033   -0.0000 </r>
       <r>   13.1101   -0.0000 </r>
       <r>   13.1292   -0.0000 </r>
       <r>   13.1840   -0.0000 </r>
       <r>   13.4962   -0.0000 </r>
       <r>   13.6380    0.0000 </r>
       <r>   13.6439    0.0000 </r>
       <r>   13.6652    0.0000 </r>
       <r>   13.6713    0.0000 </r>
       <r>   13.6884    0.0000 </r>
       <r>   13.6922    0.0000 </r>
       <r>   13.7015    0.0000 </r>
       <r>   13.7037    0.0000 </r>
       <r>   13.9545    0.0000 </r>
       <r>   13.9711    0.0000 </r>
       <r>   13.9750    0.0000 </r>
       <r>   13.9940    0.0000 </r>
       <r>   14.4853    0.0000 </r>
       <r>   14.8728    0.0000 </r>
       <r>   14.8917    0.0000 </r>
       <r>   14.9131    0.0000 </r>
       <r>   14.9327    0.0000 </r>
      </set>
      <set comment="kpoint 3">
       <r>   -7.1519    1.0000 </r>
       <r>   -6.6173    1.0000 </r>
       <r>   -5.5926    1.0000 </r>
       <r>   -5.5858    1.0000 </r>
       <r>   -5.5776    1.0000 </r>
       <r>   -5.5713    1.0000 </r>
       <r>   -5.1064    1.0000 </r>
       <r>   -5.1018    1.0000 </r>
       <r>   -5.0928    1.0000 </r>
       <r>   -5.0854    1.0000 </r>
       <r>   -4.5791    1.0000 </r>
       <r>   -4.2507    1.0000 </r>
       <r>   -4.2364    1.0000 </r>
       <r>   -4.2084    1.0000 </r>
       <r>   -4.2038    1.0000 </r>
       <r>   -3.9829    1.0000 </r>
       <r>   -3.9748    1.0000 </r>
       <r>   -3.9456    1.0000 </r>
       <r>   -3.9409    1.0000 </r>
       <r>   -3.4006    1.0000 </r>
       <r>   -3.3957    1.0000 </r>
       <r>   -3.3853    1.0000 </r>
       <r>   -3.3787    1.0000 </r>
       <r>   -3.2340    1.0000 </r>
       <r>   -2.5241    1.0000 </r>
       <r>   -2.5193    1.0000 </r>
       <r>   -2.5074    1.0000 </r>
       <r>   -2.5015    1.0000 </r>
       <r>   -2.3321    1.0000 </r>
       <r>   -2.2884    1.0000 </r>
       <r>   -2.2062    1.0000 </r>
       <r>   -2.1734    1.0000 </r>
       <r>   -0.0371    1.0000 </r>
       <r>   -0.0278    1.0000 </r>
       <r>   -0.0081    1.0000 </r>
       <r>    0.0060    1.0000 </r>
       <r>    0.3730    1.0000 </r>
       <r>    0.3781    1.0000 </r>
       <r>    0.7321    1.0000 </r>
       <r>    0.7372    1.0000 </r>
       <r>    1.0501    1.0000 </r>
       <r>    1.0546    1.0000 </r>
       <r>    1.0598    1.0000 </r>
       <r>    1.0704    1.0000 </r>
       <r>    1.0909    1.0000 </r>
       <r>    1.1024    1.0000 </r>
       <r>    1.1150    1.0000 </r>
       <r>    1.1320    1.0000 </r>
       <r>    1.2435    1.0000 </r>
       <r>    1.3954    1.0000 </r>
       <r>    1.4042    1.0000 </r>
       <r>    1.4074    1.0000 </r>
       <r>    1.4164    1.0000 </r>
       <r>    2.7116    1.0000 </r>
       <r>    2.7163    1.0000 </r>
       <r>    2.7190    1.0000 </r>
       <r>    2.7231    1.0000 </r>
       <r>    2.9448    1.0000 </r>
       <r>    2.9712    1.0000 </r>
       <r>    2.9745    1.0000 </r>
       <r>    2.9820    1.0000 </r>
       <r>    2.9848    1.0000 </r>
       <r>    3.0052    1.0000 </r>
       <r>    3.0122    1.0000 </r>
       <r>    3.0155    1.0000 </r>
       <r>    3.0278    1.0000 </r>
       <r>    3.5280    1.0000 </r>
       <r>    3.5283    1.0000 </r>
       <r>    3.6514    1.0000 </r>
       <r>    3.6549    1.0000 </r>
       <r>    4.0214    1.0000 </r>
       <r>    4.0317    1.0000 </r>
       <r>    4.0361    1.0000 </r>
       <r>    4.0438    1.0000 </r>
       <r>    4.3642    1.0000 </r>
       <r>    4.3692    1.0000 </r>
       <r>    4.3919    1.0000 </r>
       <r>    4.3939    1.0000 </r>
       <r>    4.4442    1.0000 </r>
       <r>    4.4465    1.0000 </r>
       <r>    4.4524    1.0000 </r>
       <r>    4.4587    1.0000 </r>
       <r>    4.6461    1.0000 </r>
       <r>    4.6514    1.0000 </r>
       <r>    4.6570    1.0000 </r>
       <r>    4.6603    1.0000 </r>
       <r>    4.8015    1.0000 </r>
       <r>    4.8108    1.0000 </r>
       <r>    4.8180    1.0000 </r>
       <r>    4.8316    1.0000 </r>
       <r>    4.9757    1.0000 </r>
       <r>    4.9853    1.0000 </r>
       <r>    5.4037    1.0000 </r>
       <r>    5.4145    1.0000 </r>
       <r>    5.6107    1.0000 </r>
       <r>    5.6191    1.0000 </r>
       <r>    5.6246    1.0000 </r>
       <r>    5.6271    1.0000 </r>
       <r>    5.8877    1.0000 </r>
       <r>    5.8894    1.0000 </r>
       <r>    5.8968    1.0000 </r>
       <r>    5.9050    1.0000 </r>
       <r>    6.1989    1.0000 </r>
       <r>    6.2692    1.0000 </r>
       <r>    6.2758    1.0000 </r>
       <r>    6.2838    1.0000 </r>
       <r>    6.2956    1.0000 </r>
       <r>    6.4685    1.0000 </r>
       <r>    6.4764    1.0000 </r>
       <r>    6.4856    1.0000 </r>
       <r>    6.4915    1.0000 </r>
       <r>    6.8063    1.0000 </r>
       <r>    6.8236    1.0000 </r>
       <r>    6.8579    1.0000 </r>
       <r>    6.8739    1.0000 </r>
       <r>    6.8849    1.0000 </r>
       <r>    6.8898    1.0000 </r>
       <r>    6.8963    1.0000 </r>
       <r>    6.9064    1.0000 </r>
       <r>    6.9121    1.0000 </r>
       <r>    6.9157    1.0000 </r>
       <r>    6.9292    1.0000 </r>
       <r>    6.9355    1.0000 </r>
       <r>    6.9521    1.0000 </r>
       <r>    6.9585    1.0000 </r>
       <r>    7.4577    1.0000 </r>
       <r>    7.6594    1.0019 </r>
       <r>    7.6765    1.0027 </r>
       <r>    9.6897   -0.0000 </r>
       <r>   10.1891   -0.0000 </r>
       <r>   10.2350   -0.0000 </r>
       <r>   10.6327   -0.0000 </r>
       <r>   11.9653   -0.0000 </r>
       <r>   12.0039   -0.0000 </r>
       <r>   12.5087   -0.0000 </r>
       <r>   12.6628   -0.0000 </r>
       <r>   12.6645   -0.0000 </r>
       <r>   12.6718   -0.0000 </r>
       <r>   12.6767   -0.0000 </r>
       <r>   12.9869   -0.0000 </r>
       <r>   12.9928   -0.0000 </r>
       <r>   12.9957   -0.0000 </r>
       <r>   13.0087   -0.0000 </r>
       <r>   13.0724   -0.0000 </r>
       <r>   13.0828   -0.0000 </r>
       <r>   13.0994   -0.0000 </r>
       <r>   13.1051   -0.0000 </r>
       <r>   13.1127   -0.0000 </r>
       <r>   13.1239   -0.0000 </r>
       <r>   13.1839   -0.0000 </r>
       <r>   13.4978   -0.0000 </r>
       <r>   13.6384    0.0000 </r>
       <r>   13.6497    0.0000 </r>
       <r>   13.6601    0.0000 </r>
       <r>   13.6626    0.0000 </r>
       <r>   13.6910    0.0000 </r>
       <r>   13.6963    0.0000 </r>
       <r>   13.7003    0.0000 </r>
       <r>   13.7042    0.0000 </r>
       <r>   13.9649    0.0000 </r>
       <r>   13.9680    0.0000 </r>
       <r>   13.9776    0.0000 </r>
       <r>   13.9867    0.0000 </r>
       <r>   14.4858    0.0000 </r>
       <r>   14.8812    0.0000 </r>
       <r>   14.8923    0.0000 </r>
       <r>   14.9054    0.0000 </r>
       <r>   14.9203    0.0000 </r>
      </set>
      <set comment="kpoint 4">
       <r>   -7.1519    1.0000 </r>
       <r>   -6.6175    1.0000 </r>
       <r>   -5.6021    1.0000 </r>
       <r>   -5.5898    1.0000 </r>
       <r>   -5.5769    1.0000 </r>
       <r>   -5.5577    1.0000 </r>
       <r>   -5.1167    1.0000 </r>
       <r>   -5.1047    1.0000 </r>
       <r>   -5.0922    1.0000 </r>
       <r>   -5.0733    1.0000 </r>
       <r>   -4.5797    1.0000 </r>
       <r>   -4.2495    1.0000 </r>
       <r>   -4.2386    1.0000 </r>
       <r>   -4.2117    1.0000 </r>
       <r>   -4.1947    1.0000 </r>
       <r>   -3.9872    1.0000 </r>
       <r>   -3.9776    1.0000 </r>
       <r>   -3.9489    1.0000 </r>
       <r>   -3.9353    1.0000 </r>
       <r>   -3.4124    1.0000 </r>
       <r>   -3.3952    1.0000 </r>
       <r>   -3.3847    1.0000 </r>
       <r>   -3.3683    1.0000 </r>
       <r>   -3.2339    1.0000 </r>
       <r>   -2.5372    1.0000 </r>
       <r>   -2.5175    1.0000 </r>
       <r>   -2.5079    1.0000 </r>
       <r>   -2.4921    1.0000 </r>
       <r>   -2.3082    1.0000 </r>
       <r>   -2.3056    1.0000 </r>
       <r>   -2.1923    1.0000 </r>
       <r>   -2.1911    1.0000 </r>
       <r>   -0.0380    1.0000 </r>
       <r>   -0.0289    1.0000 </r>
       <r>   -0.0079    1.0000 </r>
       <r>    0.0083    1.0000 </r>
       <r>    0.3734    1.0000 </r>
       <r>    0.3774    1.0000 </r>
       <r>    0.7326    1.0000 </r>
       <r>    0.7373    1.0000 </r>
       <r>    1.0463    1.0000 </r>
       <r>    1.0516    1.0000 </r>
       <r>    1.0659    1.0000 </r>
       <r>    1.0667    1.0000 </r>
       <r>    1.0913    1.0000 </r>
       <r>    1.0994    1.0000 </r>
       <r>    1.1158    1.0000 </r>
       <r>    1.1342    1.0000 </r>
       <r>    1.2441    1.0000 </r>
       <r>    1.3935    1.0000 </r>
       <r>    1.4021    1.0000 </r>
       <r>    1.4130    1.0000 </r>
       <r>    1.4170    1.0000 </r>
       <r>    2.7066    1.0000 </r>
       <r>    2.7165    1.0000 </r>
       <r>    2.7214    1.0000 </r>
       <r>    2.7282    1.0000 </r>
       <r>    2.9415    1.0000 </r>
       <r>    2.9659    1.0000 </r>
       <r>    2.9739    1.0000 </r>
       <r>    2.9807    1.0000 </r>
       <r>    2.9980    1.0000 </r>
       <r>    3.0006    1.0000 </r>
       <r>    3.0115    1.0000 </r>
       <r>    3.0206    1.0000 </r>
       <r>    3.0250    1.0000 </r>
       <r>    3.5276    1.0000 </r>
       <r>    3.5290    1.0000 </r>
       <r>    3.6525    1.0000 </r>
       <r>    3.6533    1.0000 </r>
       <r>    4.0190    1.0000 </r>
       <r>    4.0295    1.0000 </r>
       <r>    4.0395    1.0000 </r>
       <r>    4.0464    1.0000 </r>
       <r>    4.3669    1.0000 </r>
       <r>    4.3691    1.0000 </r>
       <r>    4.3888    1.0000 </r>
       <r>    4.3918    1.0000 </r>
       <r>    4.4396    1.0000 </r>
       <r>    4.4448    1.0000 </r>
       <r>    4.4541    1.0000 </r>
       <r>    4.4633    1.0000 </r>
       <r>    4.6318    1.0000 </r>
       <r>    4.6480    1.0000 </r>
       <r>    4.6577    1.0000 </r>
       <r>    4.6750    1.0000 </r>
       <r>    4.7895    1.0000 </r>
       <r>    4.8015    1.0000 </r>
       <r>    4.8267    1.0000 </r>
       <r>    4.8451    1.0000 </r>
       <r>    4.9784    1.0000 </r>
       <r>    4.9844    1.0000 </r>
       <r>    5.4062    1.0000 </r>
       <r>    5.4127    1.0000 </r>
       <r>    5.5972    1.0000 </r>
       <r>    5.6142    1.0000 </r>
       <r>    5.6245    1.0000 </r>
       <r>    5.6430    1.0000 </r>
       <r>    5.8820    1.0000 </r>
       <r>    5.8872    1.0000 </r>
       <r>    5.9012    1.0000 </r>
       <r>    5.9059    1.0000 </r>
       <r>    6.1993    1.0000 </r>
       <r>    6.2535    1.0000 </r>
       <r>    6.2677    1.0000 </r>
       <r>    6.2934    1.0000 </r>
       <r>    6.3089    1.0000 </r>
       <r>    6.4633    1.0000 </r>
       <r>    6.4735    1.0000 </r>
       <r>    6.4880    1.0000 </r>
       <r>    6.4960    1.0000 </r>
       <r>    6.8336    1.0000 </r>
       <r>    6.8388    1.0000 </r>
       <r>    6.8522    1.0000 </r>
       <r>    6.8631    1.0000 </r>
       <r>    6.8782    1.0000 </r>
       <r>    6.8895    1.0000 </r>
       <r>    6.8989    1.0000 </r>
       <r>    6.9068    1.0000 </r>
       <r>    6.9139    1.0000 </r>
       <r>    6.9223    1.0000 </r>
       <r>    6.9257    1.0000 </r>
       <r>    6.9343    1.0000 </r>
       <r>    6.9444    1.0000 </r>
       <r>    6.9465    1.0000 </r>
       <r>    7.4576    1.0000 </r>
       <r>    7.6623    1.0021 </r>
       <r>    7.6728    1.0025 </r>
       <r>    9.6889   -0.0000 </r>
       <r>   10.2114   -0.0000 </r>
       <r>   10.2133   -0.0000 </r>
       <r>   10.6331   -0.0000 </r>
       <r>   11.9836   -0.0000 </r>
       <r>   11.9840   -0.0000 </r>
       <r>   12.5089   -0.0000 </r>
       <r>   12.6381   -0.0000 </r>
       <r>   12.6708   -0.0000 </r>
       <r>   12.6797   -0.0000 </r>
       <r>   12.6896   -0.0000 </r>
       <r>   12.9730   -0.0000 </r>
       <r>   12.9939   -0.0000 </r>
       <r>   13.0043   -0.0000 </r>
       <r>   13.0170   -0.0000 </r>
       <r>   13.0772   -0.0000 </r>
       <r>   13.0836   -0.0000 </r>
       <r>   13.0883   -0.0000 </r>
       <r>   13.1054   -0.0000 </r>
       <r>   13.1098   -0.0000 </r>
       <r>   13.1311   -0.0000 </r>
       <r>   13.1833   -0.0000 </r>
       <r>   13.4948   -0.0000 </r>
       <r>   13.6312    0.0000 </r>
       <r>   13.6441    0.0000 </r>
       <r>   13.6671    0.0000 </r>
       <r>   13.6707    0.0000 </r>
       <r>   13.6927    0.0000 </r>
       <r>   13.6953    0.0000 </r>
       <r>   13.6989    0.0000 </r>
       <r>   13.7042    0.0000 </r>
       <r>   13.9438    0.0000 </r>
       <r>   13.9743    0.0000 </r>
       <r>   13.9816    0.0000 </r>
       <r>   13.9941    0.0000 </r>
       <r>   14.4850    0.0000 </r>
       <r>   14.8613    0.0000 </r>
       <r>   14.9023    0.0000 </r>
       <r>   14.9070    0.0000 </r>
       <r>   14.9149    0.0000 </r>
      </set>
      <set comment="kpoint 5">
       <r>   -6.9737    1.0000 </r>
       <r>   -6.4463    1.0000 </r>
       <r>   -6.4406    1.0000 </r>
       <r>   -5.9283    1.0000 </r>
       <r>   -5.4228    1.0000 </r>
       <r>   -5.4182    1.0000 </r>
       <r>   -4.9571    1.0000 </r>
       <r>   -4.9545    1.0000 </r>
       <r>   -4.9468    1.0000 </r>
       <r>   -4.9417    1.0000 </r>
       <r>   -4.5380    1.0000 </r>
       <r>   -4.5346    1.0000 </r>
       <r>   -4.4346    1.0000 </r>
       <r>   -4.4275    1.0000 </r>
       <r>   -4.0139    1.0000 </r>
       <r>   -4.0071    1.0000 </r>
       <r>   -3.5098    1.0000 </r>
       <r>   -3.5039    1.0000 </r>
       <r>   -3.3875    1.0000 </r>
       <r>   -3.3852    1.0000 </r>
       <r>   -3.3772    1.0000 </r>
       <r>   -3.3729    1.0000 </r>
       <r>   -3.1304    1.0000 </r>
       <r>   -3.1229    1.0000 </r>
       <r>   -2.8480    1.0000 </r>
       <r>   -2.8400    1.0000 </r>
       <r>   -2.7465    1.0000 </r>
       <r>   -2.7259    1.0000 </r>
       <r>   -2.7209    1.0000 </r>
       <r>   -2.3259    1.0000 </r>
       <r>   -2.3175    1.0000 </r>
       <r>   -2.2823    1.0000 </r>
       <r>   -0.1687    1.0000 </r>
       <r>   -0.1584    1.0000 </r>
       <r>    0.4984    1.0000 </r>
       <r>    0.5571    1.0000 </r>
       <r>    0.5630    1.0000 </r>
       <r>    0.5716    1.0000 </r>
       <r>    0.5747    1.0000 </r>
       <r>    0.6545    1.0000 </r>
       <r>    0.6644    1.0000 </r>
       <r>    0.7973    1.0000 </r>
       <r>    0.8047    1.0000 </r>
       <r>    0.8377    1.0000 </r>
       <r>    0.8442    1.0000 </r>
       <r>    0.9895    1.0000 </r>
       <r>    1.2195    1.0000 </r>
       <r>    1.2231    1.0000 </r>
       <r>    1.2569    1.0000 </r>
       <r>    1.2619    1.0000 </r>
       <r>    2.0420    1.0000 </r>
       <r>    2.0493    1.0000 </r>
       <r>    2.0679    1.0000 </r>
       <r>    2.0696    1.0000 </r>
       <r>    2.0720    1.0000 </r>
       <r>    2.0822    1.0000 </r>
       <r>    2.4138    1.0000 </r>
       <r>    2.5778    1.0000 </r>
       <r>    2.5836    1.0000 </r>
       <r>    2.6945    1.0000 </r>
       <r>    2.6995    1.0000 </r>
       <r>    3.2344    1.0000 </r>
       <r>    3.2406    1.0000 </r>
       <r>    3.2952    1.0000 </r>
       <r>    3.3193    1.0000 </r>
       <r>    3.3220    1.0000 </r>
       <r>    3.5213    1.0000 </r>
       <r>    3.5264    1.0000 </r>
       <r>    3.9253    1.0000 </r>
       <r>    3.9283    1.0000 </r>
       <r>    4.0499    1.0000 </r>
       <r>    4.0568    1.0000 </r>
       <r>    4.0620    1.0000 </r>
       <r>    4.0645    1.0000 </r>
       <r>    4.1094    1.0000 </r>
       <r>    4.3034    1.0000 </r>
       <r>    4.3102    1.0000 </r>
       <r>    4.4844    1.0000 </r>
       <r>    4.4869    1.0000 </r>
       <r>    4.6712    1.0000 </r>
       <r>    4.6784    1.0000 </r>
       <r>    4.8929    1.0000 </r>
       <r>    4.9049    1.0000 </r>
       <r>    4.9161    1.0000 </r>
       <r>    4.9233    1.0000 </r>
       <r>    4.9328    1.0000 </r>
       <r>    4.9443    1.0000 </r>
       <r>    5.0983    1.0000 </r>
       <r>    5.2937    1.0000 </r>
       <r>    5.2984    1.0000 </r>
       <r>    5.4109    1.0000 </r>
       <r>    5.4202    1.0000 </r>
       <r>    5.4630    1.0000 </r>
       <r>    5.4745    1.0000 </r>
       <r>    5.5701    1.0000 </r>
       <r>    5.5856    1.0000 </r>
       <r>    5.6014    1.0000 </r>
       <r>    5.6063    1.0000 </r>
       <r>    5.6091    1.0000 </r>
       <r>    5.6163    1.0000 </r>
       <r>    5.6233    1.0000 </r>
       <r>    5.8381    1.0000 </r>
       <r>    6.0124    1.0000 </r>
       <r>    6.0232    1.0000 </r>
       <r>    6.0248    1.0000 </r>
       <r>    6.0312    1.0000 </r>
       <r>    6.2074    1.0000 </r>
       <r>    6.2167    1.0000 </r>
       <r>    6.2651    1.0000 </r>
       <r>    6.2700    1.0000 </r>
       <r>    6.4116    1.0000 </r>
       <r>    6.4248    1.0000 </r>
       <r>    6.4772    1.0000 </r>
       <r>    6.4909    1.0000 </r>
       <r>    6.5390    1.0000 </r>
       <r>    6.6633    1.0000 </r>
       <r>    6.6690    1.0000 </r>
       <r>    6.6969    1.0000 </r>
       <r>    6.7021    1.0000 </r>
       <r>    6.8580    1.0000 </r>
       <r>    6.8652    1.0000 </r>
       <r>    6.8689    1.0000 </r>
       <r>    6.8769    1.0000 </r>
       <r>    7.3008    1.0000 </r>
       <r>    7.4822    1.0000 </r>
       <r>    7.4869    1.0000 </r>
       <r>    7.6205    1.0008 </r>
       <r>    7.9509    1.0153 </r>
       <r>   10.4311   -0.0000 </r>
       <r>   10.4969   -0.0000 </r>
       <r>   10.5052   -0.0000 </r>
       <r>   11.3414   -0.0000 </r>
       <r>   11.3640   -0.0000 </r>
       <r>   11.6661   -0.0000 </r>
       <r>   11.6741   -0.0000 </r>
       <r>   11.8124   -0.0000 </r>
       <r>   12.1964   -0.0000 </r>
       <r>   12.2183   -0.0000 </r>
       <r>   12.8728   -0.0000 </r>
       <r>   12.8763   -0.0000 </r>
       <r>   12.8818   -0.0000 </r>
       <r>   12.8898   -0.0000 </r>
       <r>   13.1015   -0.0000 </r>
       <r>   13.1061   -0.0000 </r>
       <r>   13.1649   -0.0000 </r>
       <r>   13.1738   -0.0000 </r>
       <r>   13.1773   -0.0000 </r>
       <r>   13.1842   -0.0000 </r>
       <r>   13.2887   -0.0000 </r>
       <r>   13.2982   -0.0000 </r>
       <r>   13.5623   -0.0000 </r>
       <r>   13.5667   -0.0000 </r>
       <r>   13.6083    0.0000 </r>
       <r>   13.6107    0.0000 </r>
       <r>   13.7578    0.0000 </r>
       <r>   13.7633    0.0000 </r>
       <r>   13.7712    0.0000 </r>
       <r>   13.7793    0.0000 </r>
       <r>   13.8986    0.0000 </r>
       <r>   13.9115    0.0000 </r>
       <r>   13.9951    0.0000 </r>
       <r>   14.0770    0.0000 </r>
       <r>   14.0964    0.0000 </r>
       <r>   14.6878    0.0000 </r>
       <r>   14.7611    0.0000 </r>
       <r>   14.7675    0.0000 </r>
       <r>   14.9758    0.0000 </r>
       <r>   15.0337    0.0000 </r>
      </set>
      <set comment="kpoint 6">
       <r>   -6.9737    1.0000 </r>
       <r>   -6.4530    1.0000 </r>
       <r>   -6.4338    1.0000 </r>
       <r>   -5.9279    1.0000 </r>
       <r>   -5.4276    1.0000 </r>
       <r>   -5.4140    1.0000 </r>
       <r>   -4.9670    1.0000 </r>
       <r>   -4.9637    1.0000 </r>
       <r>   -4.9440    1.0000 </r>
       <r>   -4.9250    1.0000 </r>
       <r>   -4.5404    1.0000 </r>
       <r>   -4.5300    1.0000 </r>
       <r>   -4.4419    1.0000 </r>
       <r>   -4.4221    1.0000 </r>
       <r>   -4.0210    1.0000 </r>
       <r>   -4.0000    1.0000 </r>
       <r>   -3.5142    1.0000 </r>
       <r>   -3.4991    1.0000 </r>
       <r>   -3.4002    1.0000 </r>
       <r>   -3.3955    1.0000 </r>
       <r>   -3.3680    1.0000 </r>
       <r>   -3.3579    1.0000 </r>
       <r>   -3.1379    1.0000 </r>
       <r>   -3.1179    1.0000 </r>
       <r>   -2.8544    1.0000 </r>
       <r>   -2.8331    1.0000 </r>
       <r>   -2.7477    1.0000 </r>
       <r>   -2.7270    1.0000 </r>
       <r>   -2.7180    1.0000 </r>
       <r>   -2.3332    1.0000 </r>
       <r>   -2.3128    1.0000 </r>
       <r>   -2.2802    1.0000 </r>
       <r>   -0.1697    1.0000 </r>
       <r>   -0.1551    1.0000 </r>
       <r>    0.5000    1.0000 </r>
       <r>    0.5504    1.0000 </r>
       <r>    0.5549    1.0000 </r>
       <r>    0.5712    1.0000 </r>
       <r>    0.5847    1.0000 </r>
       <r>    0.6548    1.0000 </r>
       <r>    0.6666    1.0000 </r>
       <r>    0.7994    1.0000 </r>
       <r>    0.8042    1.0000 </r>
       <r>    0.8331    1.0000 </r>
       <r>    0.8460    1.0000 </r>
       <r>    0.9871    1.0000 </r>
       <r>    1.2089    1.0000 </r>
       <r>    1.2322    1.0000 </r>
       <r>    1.2504    1.0000 </r>
       <r>    1.2699    1.0000 </r>
       <r>    2.0377    1.0000 </r>
       <r>    2.0496    1.0000 </r>
       <r>    2.0640    1.0000 </r>
       <r>    2.0719    1.0000 </r>
       <r>    2.0771    1.0000 </r>
       <r>    2.0871    1.0000 </r>
       <r>    2.4138    1.0000 </r>
       <r>    2.5775    1.0000 </r>
       <r>    2.5873    1.0000 </r>
       <r>    2.6829    1.0000 </r>
       <r>    2.7086    1.0000 </r>
       <r>    3.2317    1.0000 </r>
[...]
      </set>
     </set>
    </set>
   </array>
  </eigenvalues>
  <separator name="orbital magnetization" >
   <v name="MAGDIPOLOUT">      0.00000000      0.00000000      0.00000000</v>
  </separator>
  <dos>
   <i name="efermi">      8.13562318 </i>
   <total>
    <array>
     <dimension dim="1">gridpoints</dimension>
     <dimension dim="2">spin</dimension>
     <field>energy</field>
     <field>total</field>
     <field>integrated</field>
     <set>
      <set comment="spin 1">
       <r>    -9.3314     0.0000     0.0000 </r>
       <r>    -9.2420     0.0000     0.0000 </r>
       <r>    -9.1525     0.0000     0.0000 </r>
       <r>    -9.0631     0.0000     0.0000 </r>
       <r>    -8.9737    -0.0000    -0.0000 </r>
       <r>    -8.8842    -0.0000    -0.0000 </r>
       <r>    -8.7948    -0.0000    -0.0000 </r>
       <r>    -8.7054    -0.0000    -0.0000 </r>
       <r>    -8.6159    -0.0000    -0.0000 </r>
       <r>    -8.5265    -0.0000    -0.0000 </r>
       <r>    -8.4370    -0.0000    -0.0000 </r>
       <r>    -8.3476    -0.0000    -0.0000 </r>
       <r>    -8.2582    -0.0000    -0.0000 </r>
       <r>    -8.1687    -0.0000    -0.0000 </r>
       <r>    -8.0793    -0.0000    -0.0000 </r>
       <r>    -7.9898    -0.0000    -0.0000 </r>
       <r>    -7.9004    -0.0002    -0.0000 </r>
       <r>    -7.8110    -0.0014    -0.0001 </r>
       <r>    -7.7215    -0.0072    -0.0008 </r>
       <r>    -7.6321    -0.0230    -0.0028 </r>
       <r>    -7.5427    -0.0412    -0.0065 </r>
       <r>    -7.4532    -0.0180    -0.0081 </r>
       <r>    -7.3638     0.1487     0.0052 </r>
       <r>    -7.2743     0.6324     0.0617 </r>
       <r>    -7.1849     1.5511     0.2004 </r>
       <r>    -7.0955     2.7959     0.4505 </r>
       <r>    -7.0060     4.0078     0.8090 </r>
       <r>    -6.9166     4.5492     1.2158 </r>
       <r>    -6.8271     4.0768     1.5805 </r>
       <r>    -6.7377     3.1114     1.8587 </r>
       <r>    -6.6483     2.7057     2.1007 </r>
       <r>    -6.5588     4.0407     2.4621 </r>
       <r>    -6.4694     7.1384     3.1006 </r>
       <r>    -6.3800    10.0044     3.9953 </r>
       <r>    -6.2905    10.4716     4.9319 </r>
       <r>    -6.2011     7.8436     5.6334 </r>
       <r>    -6.1116     3.7387     5.9678 </r>
       <r>    -6.0222     1.6964     6.1195 </r>
       <r>    -5.9328     3.4115     6.4247 </r>
       <r>    -5.8433     7.2725     7.0751 </r>
       <r>    -5.7539    10.6161     8.0246 </r>
       <r>    -5.6644    11.7846     9.0786 </r>
       <r>    -5.5750    11.5018    10.1073 </r>
       <r>    -5.4856    11.1352    11.1032 </r>
       <r>    -5.3961    10.1121    12.0076 </r>
       <r>    -5.3067     7.6445    12.6913 </r>
       <r>    -5.2172     5.8497    13.2145 </r>
       <r>    -5.1278     8.1229    13.9410 </r>
       <r>    -5.0384    13.9934    15.1926 </r>
       <r>    -4.9489    17.6923    16.7750 </r>
       <r>    -4.8595    13.9723    18.0246 </r>
       <r>    -4.7701     5.8946    18.5518 </r>
       <r>    -4.6806     2.0579    18.7359 </r>
       <r>    -4.5912     5.7917    19.2539 </r>
       <r>    -4.5017    12.7298    20.3924 </r>
       <r>    -4.4123    17.9274    21.9958 </r>
       <r>    -4.3229    19.9619    23.7812 </r>
       <r>    -4.2334    18.1469    25.4042 </r>
       <r>    -4.1440    14.3045    26.6836 </r>
       <r>    -4.0545    15.5692    28.0761 </r>
       <r>    -3.9651    23.0253    30.1354 </r>
       <r>    -3.8757    25.7688    32.4401 </r>
       <r>    -3.7862    18.5481    34.0991 </r>
       <r>    -3.6968    10.4290    35.0318 </r>
       <r>    -3.6074     9.4826    35.8799 </r>
       <r>    -3.5179    15.3454    37.2524 </r>
       <r>    -3.4285    23.2722    39.3338 </r>
       <r>    -3.3390    25.3102    41.5975 </r>
       <r>    -3.2496    19.1259    43.3081 </r>
       <r>    -3.1602    13.6487    44.5288 </r>
       <r>    -3.0707    15.2728    45.8948 </r>
       <r>    -2.9813    21.3380    47.8033 </r>
       <r>    -2.8918    28.4505    50.3478 </r>
       <r>    -2.8024    32.2321    53.2306 </r>
       <r>    -2.7130    27.1313    55.6572 </r>
       <r>    -2.6235    16.2054    57.1066 </r>
       <r>    -2.5341     9.1021    57.9207 </r>
       <r>    -2.4447     9.7311    58.7910 </r>
       <r>    -2.3552    14.8618    60.1202 </r>
       <r>    -2.2658    18.3404    61.7606 </r>
       <r>    -2.1763    15.4553    63.1429 </r>
       <r>    -2.0869     8.2611    63.8817 </r>
       <r>    -1.9975     2.3107    64.0884 </r>
       <r>    -1.9080    -0.1892    64.0715 </r>
       <r>    -1.8186    -0.4946    64.0272 </r>
       <r>    -1.7291    -0.2324    64.0065 </r>
       <r>    -1.6397    -0.0610    64.0010 </r>
       <r>    -1.5503    -0.0101    64.0001 </r>
       <r>    -1.4608    -0.0011    64.0000 </r>
       <r>    -1.3714    -0.0001    64.0000 </r>
       <r>    -1.2820    -0.0000    64.0000 </r>
       <r>    -1.1925    -0.0000    64.0000 </r>
       <r>    -1.1031    -0.0002    64.0000 </r>
       <r>    -1.0136    -0.0018    63.9998 </r>
       <r>    -0.9242    -0.0114    63.9988 </r>
       <r>    -0.8348    -0.0405    63.9952 </r>
       <r>    -0.7453    -0.0605    63.9898 </r>
       <r>    -0.6559     0.0807    63.9970 </r>
       <r>    -0.5664     0.4795    64.0399 </r>
       <r>    -0.4770     0.7571    64.1076 </r>
       <r>    -0.3876     0.7074    64.1708 </r>
       <r>    -0.2981     1.7496    64.3273 </r>
       <r>    -0.2087     5.4312    64.8131 </r>
       <r>    -0.1192     9.8961    65.6982 </r>
       <r>    -0.0298    11.1352    66.6941 </r>
       <r>     0.0596     8.2839    67.4350 </r>
       <r>     0.1491     5.5494    67.9313 </r>
       <r>     0.2385     7.4328    68.5961 </r>
       <r>     0.3279    13.0961    69.7674 </r>
       <r>     0.4174    18.9559    71.4628 </r>
       <r>     0.5068    23.3818    73.5540 </r>
       <r>     0.5963    25.5483    75.8390 </r>
       <r>     0.6857    26.3414    78.1950 </r>
       <r>     0.7751    29.2920    80.8148 </r>
       <r>     0.8646    32.6385    83.7339 </r>
       <r>     0.9540    30.7825    86.4871 </r>
       <r>     1.0435    27.6457    88.9597 </r>
       <r>     1.1329    31.5857    91.7847 </r>
       <r>     1.2223    39.8081    95.3450 </r>
       <r>     1.3118    40.5538    98.9721 </r>
       <r>     1.4012    28.8883   101.5558 </r>
       <r>     1.4906    12.9234   102.7117 </r>
       <r>     1.5801     2.3087   102.9182 </r>
       <r>     1.6695    -1.3114   102.8009 </r>
       <r>     1.7590    -1.1351   102.6994 </r>
       <r>     1.8484     1.2677   102.8127 </r>
       <r>     1.9378     8.3402   103.5587 </r>
       <r>     2.0273    20.5044   105.3926 </r>
       <r>     2.1167    28.6306   107.9532 </r>
       <r>     2.2062    24.1372   110.1120 </r>
       <r>     2.2956    12.7005   111.2480 </r>
       <r>     2.3850     5.2033   111.7133 </r>
       <r>     2.4745     5.0942   112.1689 </r>
       <r>     2.5639    10.3627   113.0958 </r>
       <r>     2.6533    16.5685   114.5776 </r>
       <r>     2.7428    17.6163   116.1532 </r>
       <r>     2.8322    13.5650   117.3664 </r>
       <r>     2.9217    12.5369   118.4877 </r>
       <r>     3.0111    16.9780   120.0062 </r>
       <r>     3.1005    21.6045   121.9385 </r>
       <r>     3.1900    26.6828   124.3250 </r>
       <r>     3.2794    33.3449   127.3073 </r>
       <r>     3.3689    34.5430   130.3968 </r>
       <r>     3.4583    29.1594   133.0047 </r>
       <r>     3.5477    25.4561   135.2815 </r>
       <r>     3.6372    23.8418   137.4139 </r>
       <r>     3.7266    18.6034   139.0777 </r>
       <r>     3.8160    11.9009   140.1421 </r>
       <r>     3.9055    12.4016   141.2513 </r>
       <r>     3.9949    21.2329   143.1504 </r>
       <r>     4.0844    26.8317   145.5501 </r>
       <r>     4.1738    21.9082   147.5096 </r>
       <r>     4.2632    16.8995   149.0211 </r>
       <r>     4.3527    22.4089   151.0253 </r>
       <r>     4.4421    32.2811   153.9125 </r>
       <r>     4.5316    37.2233   157.2416 </r>
       <r>     4.6210    36.9670   160.5479 </r>
       <r>     4.7104    34.7439   163.6554 </r>
       <r>     4.7999    34.4572   166.7372 </r>
       <r>     4.8893    36.4134   169.9939 </r>
       <r>     4.9787    34.9263   173.1177 </r>
       <r>     5.0682    30.5856   175.8532 </r>
       <r>     5.1576    29.9846   178.5350 </r>
       <r>     5.2471    31.4133   181.3446 </r>
       <r>     5.3365    29.8294   184.0125 </r>
       <r>     5.4259    28.9964   186.6059 </r>
       <r>     5.5154    35.4773   189.7789 </r>
       <r>     5.6048    44.8416   193.7895 </r>
       <r>     5.6943    45.1949   197.8316 </r>
       <r>     5.7837    37.5033   201.1859 </r>
       <r>     5.8731    33.1121   204.1474 </r>
       <r>     5.9626    32.7620   207.0776 </r>
       <r>     6.0520    30.4352   209.7996 </r>
       <r>     6.1415    27.9683   212.3011 </r>
       <r>     6.2309    30.2497   215.0066 </r>
       <r>     6.3203    34.6187   218.1028 </r>
       <r>     6.4098    36.7735   221.3918 </r>
       <r>     6.4992    35.1408   224.5347 </r>
       <r>     6.5886    28.6068   227.0933 </r>
       <r>     6.6781    23.3230   229.1793 </r>
       <r>     6.7675    28.8897   231.7631 </r>
       <r>     6.8570    42.4180   235.5569 </r>
       <r>     6.9464    47.4215   239.7982 </r>
       <r>     7.0358    35.1614   242.9430 </r>
       <r>     7.1253    17.6790   244.5242 </r>
       <r>     7.2147     9.5679   245.3799 </r>
       <r>     7.3042    11.5376   246.4119 </r>
       <r>     7.3936    17.0295   247.9349 </r>
       <r>     7.4830    21.3232   249.8421 </r>
       <r>     7.5725    22.0559   251.8147 </r>
       <r>     7.6619    18.4952   253.4689 </r>
       <r>     7.7513    11.9035   254.5335 </r>
       <r>     7.8408     5.8780   255.0593 </r>
       <r>     7.9302     3.6979   255.3900 </r>
       <r>     8.0197     3.7332   255.7239 </r>
       <r>     8.1091     2.6697   255.9627 </r>
       <r>     8.1985     0.8278   256.0367 </r>
       <r>     8.2880    -0.1258   256.0254 </r>
       <r>     8.3774    -0.1956   256.0080 </r>
       <r>     8.4669    -0.0725   256.0015 </r>
       <r>     8.5563    -0.0145   256.0002 </r>
       <r>     8.6457    -0.0018   256.0000 </r>
       <r>     8.7352    -0.0002   256.0000 </r>
       <r>     8.8246    -0.0011   255.9999 </r>
       <r>     8.9140    -0.0071   255.9993 </r>
       <r>     9.0035    -0.0268   255.9969 </r>
       <r>     9.0929    -0.0446   255.9929 </r>
       <r>     9.1824     0.0481   255.9972 </r>
       <r>     9.2718     0.3726   256.0305 </r>
       <r>     9.3612     0.7359   256.0963 </r>
       <r>     9.4507     0.7758   256.1657 </r>
       <r>     9.5401     0.7583   256.2335 </r>
       <r>     9.6296     1.2472   256.3451 </r>
       <r>     9.7190     1.7596   256.5025 </r>
       <r>     9.8084     1.3655   256.6246 </r>
       <r>     9.8979     0.3682   256.6575 </r>
       <r>     9.9873    -0.1362   256.6453 </r>
       <r>    10.0767     0.5263   256.6924 </r>
       <r>    10.1662     2.0718   256.8777 </r>
       <r>    10.2556     3.4867   257.1895 </r>
       <r>    10.3451     5.1493   257.6501 </r>
       <r>    10.4345     8.2959   258.3921 </r>
       <r>    10.5239    11.1770   259.3917 </r>
       <r>    10.6134    11.5912   260.4284 </r>
       <r>    10.7028    10.4425   261.3624 </r>
       <r>    10.7923     8.0314   262.0807 </r>
       <r>    10.8817     4.0689   262.4446 </r>
       <r>    10.9711     0.6046   262.4987 </r>
       <r>    11.0606    -0.7835   262.4286 </r>
       <r>    11.1500    -0.3366   262.3985 </r>
       <r>    11.2394     1.9974   262.5771 </r>
       <r>    11.3289     5.4266   263.0625 </r>
       <r>    11.4183     7.6509   263.7468 </r>
       <r>    11.5078     9.0556   264.5567 </r>
       <r>    11.5972    11.4745   265.5829 </r>
       <r>    11.6866    13.1665   266.7605 </r>
       <r>    11.7761    13.9507   268.0083 </r>
       <r>    11.8655    17.5613   269.5789 </r>
       <r>    11.9550    22.5148   271.5926 </r>
       <r>    12.0444    22.9575   273.6459 </r>
       <r>    12.1338    18.5597   275.3059 </r>
       <r>    12.2233    12.7649   276.4475 </r>
       <r>    12.3127     6.7996   277.0557 </r>
       <r>    12.4022     2.2241   277.2546 </r>
       <r>    12.4916     3.2378   277.5442 </r>
       <r>    12.5810    11.7304   278.5933 </r>
       <r>    12.6705    22.1588   280.5752 </r>
       <r>    12.7599    27.1862   283.0067 </r>
       <r>    12.8493    27.1796   285.4376 </r>
       <r>    12.9388    27.0207   287.8543 </r>
       <r>    13.0282    30.5715   290.5885 </r>
       <r>    13.1177    37.0895   293.9058 </r>
       <r>    13.2071    37.6514   297.2733 </r>
       <r>    13.2965    27.0132   299.6893 </r>
       <r>    13.3860    14.4656   300.9831 </r>
       <r>    13.4754    12.8379   302.1313 </r>
       <r>    13.5649    23.3927   304.2235 </r>
       <r>    13.6543    34.9175   307.3465 </r>
       <r>    13.7437    36.6358   310.6231 </r>
       <r>    13.8332    30.1810   313.3225 </r>
       <r>    13.9226    25.8536   315.6348 </r>
       <r>    14.0120    28.2880   318.1648 </r>
       <r>    14.1015    31.8130   321.0101 </r>
       <r>    14.1909    29.6098   323.6584 </r>
       <r>    14.2804    20.6382   325.5042 </r>
       <r>    14.3698     9.5013   326.3540 </r>
       <r>    14.4592     2.3415   326.5634 </r>
       <r>    14.5487     2.1259   326.7536 </r>
       <r>    14.6381     8.3447   327.4999 </r>
       <r>    14.7276    16.5923   328.9839 </r>
       <r>    14.8170    20.3397   330.8031 </r>
       <r>    14.9064    18.5262   332.4600 </r>
       <r>    14.9959    14.3963   333.7476 </r>
       <r>    15.0853     8.9841   334.5511 </r>
       <r>    15.1747     3.3192   334.8480 </r>
       <r>    15.2642     0.1757   334.8637 </r>
       <r>    15.3536     0.7821   334.9337 </r>
       <r>    15.4431     3.4268   335.2401 </r>
       <r>    15.5325     4.7583   335.6657 </r>
       <r>    15.6219     3.2565   335.9570 </r>
       <r>    15.7114     0.9348   336.0406 </r>
       <r>    15.8008    -0.1535   336.0268 </r>
       <r>    15.8903    -0.2111   336.0080 </r>
       <r>    15.9797    -0.0735   336.0014 </r>
       <r>    16.0691    -0.0138   336.0002 </r>
       <r>    16.1586    -0.0016   336.0000 </r>
       <r>    16.2480    -0.0001   336.0000 </r>
       <r>    16.3374    -0.0000   336.0000 </r>
       <r>    16.4269    -0.0000   336.0000 </r>
       <r>    16.5163    -0.0000   336.0000 </r>
       <r>    16.6058    -0.0000   336.0000 </r>
       <r>    16.6952    -0.0000   336.0000 </r>
       <r>    16.7846    -0.0000   336.0000 </r>
       <r>    16.8741     0.0000   336.0000 </r>
       <r>    16.9635     0.0000   336.0000 </r>
       <r>    17.0530     0.0000   336.0000 </r>
       <r>    17.1424     0.0000   336.0000 </r>
       <r>    17.2318     0.0000   336.0000 </r>
       <r>    17.3213     0.0000   336.0000 </r>
       <r>    17.4107     0.0000   336.0000 </r>
       <r>    17.5001     0.0000   336.0000 </r>
      </set>
     </set>
    </array>
   </total>
  </dos>
 </calculation>
 <structure name="finalpos" >
  <crystal>
   <varray name="basis" >
    <v>       8.74331558       0.00000000       0.00000000 </v>
    <v>       0.00000000       8.74331558       0.00000000 </v>
    <v>       0.00000000       0.00000000       8.74331558 </v>
   </varray>
   <i name="volume">    668.38771987 </i>
   <varray name="rec_basis" >
    <v>       0.11437309       0.00000000       0.00000000 </v>
    <v>       0.00000000       0.11437309       0.00000000 </v>
    <v>       0.00000000       0.00000000       0.11437309 </v>
   </varray>
  </crystal>
  <varray name="positions" >
   <v>       0.12625527       0.12536416       0.12394863 </v>
   <v>       0.12470622       0.37501774       0.37512710 </v>
   <v>       0.37512145       0.12358695       0.37487138 </v>
   <v>       0.37406490       0.37574921       0.12523014 </v>
   <v>       0.12463551       0.12588893       0.62400419 </v>
   <v>       0.12419561       0.37580728       0.87381671 </v>
   <v>       0.37503417       0.12502885       0.87560787 </v>
   <v>       0.37563654       0.37612402       0.62527934 </v>
   <v>       0.12513749       0.62596545       0.12532548 </v>
   <v>       0.12524765       0.87600883       0.37503915 </v>
   <v>       0.37533770       0.62442630       0.37512623 </v>
   <v>       0.37493615       0.87562171       0.12519717 </v>
   <v>       0.12611500       0.62560259       0.62424710 </v>
   <v>       0.12426654       0.87436460       0.87566475 </v>
   <v>       0.37514541       0.62460260       0.87471595 </v>
   <v>       0.37542621       0.87460448       0.62438994 </v>
   <v>       0.62503931       0.12499416       0.12643191 </v>
   <v>       0.62469890       0.37464273       0.37508811 </v>
   <v>       0.87583975       0.12497305       0.37463306 </v>
   <v>       0.87521954       0.37477423       0.12493493 </v>
   <v>       0.62481662       0.12452156       0.62466143 </v>
   <v>       0.62444872       0.37535812       0.87552389 </v>
   <v>       0.87426512       0.12549864       0.87403942 </v>
   <v>       0.87499278       0.37506075       0.62597685 </v>
   <v>       0.62441983       0.62549563       0.12449099 </v>
   <v>       0.62405333       0.87436240       0.37539951 </v>
   <v>       0.87618821       0.62279617       0.37528694 </v>
   <v>       0.87544721       0.87501086       0.12530053 </v>
   <v>       0.62489151       0.62464437       0.62544870 </v>
   <v>       0.62404260       0.87552116       0.87575429 </v>
   <v>       0.87559171       0.62421707       0.87598978 </v>
   <v>       0.87476653       0.87303097       0.62433601 </v>
   <v>       0.00036769       0.00034535       0.00011366 </v>
   <v>       0.00167928       0.25000285       0.24930952 </v>
   <v>       0.24919708       0.99986166       0.25127859 </v>
   <v>       0.24883376       0.24925426       0.99963632 </v>
   <v>       0.00022409       0.00130566       0.50029332 </v>
   <v>       0.99881920       0.24961185       0.75021849 </v>
   <v>       0.24982293       0.00031579       0.75089804 </v>
   <v>       0.24887076       0.24912089       0.50041931 </v>
   <v>       0.99972764       0.49969440       0.00012041 </v>
   <v>       0.99971713       0.75064350       0.25077622 </v>
   <v>       0.25034429       0.50137347       0.24986927 </v>
   <v>       0.25030881       0.75150090       0.00047253 </v>
   <v>       0.00027328       0.49982498       0.49927079 </v>
   <v>       0.00036557       0.74993226       0.74964471 </v>
   <v>       0.24988444       0.49983840       0.74862616 </v>
   <v>       0.25017939       0.74879235       0.50156572 </v>
   <v>       0.49996612       0.00101334       0.99924238 </v>
   <v>       0.49878797       0.24997340       0.24992427 </v>
   <v>       0.74870367       0.00118721       0.24929220 </v>
   <v>       0.75033036       0.24991313       0.00032759 </v>
   <v>       0.50108821       0.00113448       0.50088381 </v>
   <v>       0.49899432       0.24955179       0.74843160 </v>
   <v>       0.75038484       0.99987636       0.74976926 </v>
   <v>       0.75039631       0.24956556       0.49955747 </v>
   <v>       0.50056057       0.50018143       0.99904620 </v>
   <v>       0.49987478       0.75034141       0.25090503 </v>
   <v>       0.75031532       0.50055829       0.24988580 </v>
   <v>       0.74996665       0.75034518       0.99971551 </v>
   <v>       0.50069797       0.50016330       0.49854529 </v>
   <v>       0.49870091       0.75006061       0.74959224 </v>
   <v>       0.75025681       0.50099974       0.74981889 </v>
   <v>       0.75000714       0.74954642       0.49926125 </v>
  </varray>
 </structure>
</modeling>
