unknown system                          
           1
     8.743316    0.000000    0.000000
     0.000000    8.743316    0.000000
     0.000000    0.000000    8.743316
   C    Si
    32    32
Direct configuration=     1
   0.12625527  0.12536416  0.12394863
   0.12470622  0.37501774  0.37512710
   0.37512145  0.12358695  0.37487138
   0.37406490  0.37574921  0.12523014
   0.12463551  0.12588893  0.62400419
   0.12419561  0.37580728  0.87381671
   0.37503417  0.12502885  0.87560787
   0.37563654  0.37612402  0.62527934
   0.12513749  0.62596545  0.12532548
   0.12524765  0.87600883  0.37503915
   0.37533770  0.62442630  0.37512623
   0.37493615  0.87562171  0.12519717
   0.12611500  0.62560259  0.62424710
   0.12426654  0.87436460  0.87566475
   0.37514541  0.62460260  0.87471595
   0.37542621  0.87460448  0.62438994
   0.62503931  0.12499416  0.12643191
   0.62469890  0.37464273  0.37508811
   0.87583975  0.12497305  0.37463306
   0.87521954  0.37477423  0.12493493
   0.62481662  0.12452156  0.62466143
   0.62444872  0.37535812  0.87552389
   0.87426512  0.12549864  0.87403942
   0.87499278  0.37506075  0.62597685
   0.62441983  0.62549563  0.12449099
   0.62405333  0.87436240  0.37539951
   0.87618821  0.62279617  0.37528694
   0.87544721  0.87501086  0.12530053
   0.62489151  0.62464437  0.62544870
   0.62404260  0.87552116  0.87575429
   0.87559171  0.62421707  0.87598978
   0.87476653  0.87303097  0.62433601
   0.00036769  0.00034535  0.00011366
   0.00167928  0.25000285  0.24930952
   0.24919708  0.99986166  0.25127859
   0.24883376  0.24925426  0.99963632
   0.00022409  0.00130566  0.50029332
   0.99881920  0.24961185  0.75021849
   0.24982293  0.00031579  0.75089804
   0.24887076  0.24912089  0.50041931
   0.99972764  0.49969440  0.00012041
   0.99971713  0.75064350  0.25077622
   0.25034429  0.50137347  0.24986927
   0.25030881  0.75150090  0.00047253
   0.00027328  0.49982498  0.49927079
   0.00036557  0.74993226  0.74964471
   0.24988444  0.49983840  0.74862616
   0.25017939  0.74879235  0.50156572
   0.49996612  0.00101334  0.99924238
   0.49878797  0.24997340  0.24992427
   0.74870367  0.00118721  0.24929220
   0.75033036  0.24991313  0.00032759
   0.50108821  0.00113448  0.50088381
   0.49899432  0.24955179  0.74843160
   0.75038484  0.99987636  0.74976926
   0.75039631  0.24956556  0.49955747
   0.50056057  0.50018143  0.99904620
   0.49987478  0.75034141  0.25090503
   0.75031532  0.50055829  0.24988580
   0.74996665  0.75034518  0.99971551
   0.50069797  0.50016330  0.49854529
   0.49870091  0.75006061  0.74959224
   0.75025681  0.50099974  0.74981889
   0.75000714  0.74954642  0.49926125
