       N       E                     dE             d eps       ncg     rms          rms(c)
DAV:   1     0.668800101423E+03    0.66880E+03   -0.99552E+04  4704   0.111E+03
DAV:   2    -0.462937721326E+03   -0.11317E+04   -0.10709E+04  5816   0.221E+02
DAV:   3    -0.537932467428E+03   -0.74995E+02   -0.74296E+02  5688   0.560E+01
DAV:   4    -0.539586688394E+03   -0.16542E+01   -0.16472E+01  5712   0.902E+00
DAV:   5    -0.539632428002E+03   -0.45740E-01   -0.45667E-01  5528   0.143E+00    0.491E+01
DAV:   6    -0.483032469116E+03    0.56600E+02   -0.19013E+02  5344   0.234E+01    0.218E+01
DAV:   7    -0.481673686025E+03    0.13588E+01   -0.15624E+01  5888   0.700E+00    0.973E+00
DAV:   8    -0.481446060068E+03    0.22763E+00   -0.10105E+00  5384   0.196E+00    0.260E+00
DAV:   9    -0.481429682099E+03    0.16378E-01   -0.14027E-01  5424   0.808E-01    0.432E-01
DAV:  10    -0.481432747659E+03   -0.30656E-02   -0.13147E-02  5784   0.252E-01    0.239E-01
DAV:  11    -0.481433756528E+03   -0.10089E-02   -0.19691E-03  5152   0.112E-01    0.824E-02
DAV:  12    -0.481433778857E+03   -0.22330E-04   -0.29977E-04  6376   0.429E-02    0.412E-02
DAV:  13    -0.481433790812E+03   -0.11954E-04   -0.92959E-05  5160   0.224E-02    0.104E-02
DAV:  14    -0.481433797150E+03   -0.63385E-05   -0.67888E-06  5496   0.551E-03    0.529E-03
DAV:  15    -0.481433799042E+03   -0.18922E-05   -0.16594E-06  5592   0.293E-03    0.387E-03
DAV:  16    -0.481433798745E+03    0.29729E-06   -0.18589E-07  5792   0.115E-03    0.147E-03
DAV:  17    -0.481433798991E+03   -0.24609E-06   -0.92723E-08  5160   0.663E-04    0.724E-04
DAV:  18    -0.481433799015E+03   -0.24505E-07   -0.75700E-09  2752   0.242E-04    0.378E-04
DAV:  19    -0.481433798974E+03    0.41615E-07   -0.53160E-09  2696   0.154E-04    0.107E-04
DAV:  20    -0.481433798974E+03   -0.16735E-09   -0.63686E-10  2688   0.793E-05
   1 F= -.48143380E+03 E0= -.48143694E+03  d E =0.943056E-02
