<?xml version="1.0" encoding="ISO-8859-1"?>
<modeling>
 <generator>
  <i name="program" type="string">vasp </i>
  <i name="version" type="string">6.2.1  </i>
  <i name="subversion" type="string">16May21 (build Jun 06 2020 10:27:25) complex                          parallel </i>
  <i name="platform" type="string">LinuxIFC </i>
  <i name="date" type="string">2024 01 12 </i>
  <i name="time" type="string">17:49:50 </i>
 </generator>
 <incar>
  <i type="int" name="NELM">    60</i>
  <i type="int" name="IBRION">     1</i>
  <i name="EDIFF">      0.00000001</i>
  <i type="int" name="NSW">     0</i>
  <i type="int" name="ISIF">     3</i>
  <i type="int" name="ISYM">     0</i>
  <i type="logical" name="LWAVE"> F  </i>
  <i type="logical" name="LCHARG"> F  </i>
  <i type="string" name="GGA">PE</i>
 </incar>
 <primitive_cell>
  <structure name="primitive_cell" >
   <crystal>
    <varray name="basis" >
     <v>       8.74331558       0.00000000       0.00000000 </v>
     <v>       0.00000000       8.74331558       0.00000000 </v>
     <v>       0.00000000       0.00000000       8.74331558 </v>
    </varray>
    <i name="volume">    668.38771987 </i>
    <varray name="rec_basis" >
     <v>       0.11437309       0.00000000       0.00000000 </v>
     <v>       0.00000000       0.11437309       0.00000000 </v>
     <v>       0.00000000       0.00000000       0.11437309 </v>
    </varray>
   </crystal>
   <varray name="positions" >
    <v>       0.12095083       0.12557891       0.12454345 </v>
    <v>       0.12290488       0.37914185       0.37264253 </v>
    <v>       0.37697417       0.12587902       0.37305785 </v>
    <v>       0.37460602       0.37456447       0.12353075 </v>
    <v>       0.12164359       0.12398656       0.62511790 </v>
    <v>       0.12368899       0.37520242       0.87407852 </v>
    <v>       0.37731663       0.12539029       0.87433521 </v>
    <v>       0.37550415       0.37536210       0.62672297 </v>
    <v>       0.12894798       0.62449882       0.12400602 </v>
    <v>       0.12808578       0.87332112       0.37380806 </v>
    <v>       0.37422916       0.62621264       0.37643389 </v>
    <v>       0.37538325       0.87432715       0.12157634 </v>
    <v>       0.12374528       0.62247616       0.62559225 </v>
    <v>       0.12269686       0.87190335       0.87421600 </v>
    <v>       0.37375308       0.62394465       0.87599770 </v>
    <v>       0.37587685       0.87491351       0.62340900 </v>
    <v>       0.62548833       0.12646244       0.12451125 </v>
    <v>       0.61993854       0.37382812       0.37703298 </v>
    <v>       0.87779949       0.12449789       0.37267074 </v>
    <v>       0.87641480       0.37494271       0.12297672 </v>
    <v>       0.62676634       0.12353345       0.62502823 </v>
    <v>       0.62438002       0.37412420       0.87462874 </v>
    <v>       0.87558917       0.12641488       0.87672305 </v>
    <v>       0.87537188       0.37647728       0.62750808 </v>
    <v>       0.62759870       0.62464257       0.12582082 </v>
    <v>       0.62634122       0.87655539       0.37577379 </v>
    <v>       0.87700439       0.62557016       0.37651113 </v>
    <v>       0.87797816       0.87586583       0.12374512 </v>
    <v>       0.62347901       0.62529358       0.62511772 </v>
    <v>       0.62480548       0.87685088       0.87421942 </v>
    <v>       0.87373226       0.62236505       0.87448360 </v>
    <v>       0.87838202       0.87810227       0.62703476 </v>
    <v>       0.99995553       0.99824569       0.00146599 </v>
    <v>       0.00024935       0.25175694       0.25147345 </v>
    <v>       0.25125312       0.99761298       0.25144644 </v>
    <v>       0.24790616       0.24978842       0.00015225 </v>
    <v>       0.00143210       0.99735228       0.50033123 </v>
    <v>       0.99773840       0.25099083       0.74939802 </v>
    <v>       0.25009526       0.00263078       0.74838600 </v>
    <v>       0.24793595       0.25092293       0.49825263 </v>
    <v>       0.99828831       0.49965842       0.99902355 </v>
    <v>       0.99794833       0.75106473       0.25099178 </v>
    <v>       0.25166821       0.49674611       0.25058470 </v>
    <v>       0.25292882       0.75073476       0.00438517 </v>
    <v>       0.99983287       0.50250856       0.49950081 </v>
    <v>       0.00149907       0.75150802       0.75200441 </v>
    <v>       0.25289188       0.50102183       0.74818091 </v>
    <v>       0.25160200       0.74565808       0.49801109 </v>
    <v>       0.50218328       0.99859049       0.99832301 </v>
    <v>       0.49834127       0.24820913       0.24848061 </v>
    <v>       0.74557441       0.00256652       0.24763693 </v>
    <v>       0.75155346       0.24670560       0.00196169 </v>
    <v>       0.50330982       0.99974315       0.49601128 </v>
    <v>       0.50040078       0.24944011       0.74818603 </v>
    <v>       0.75128337       0.99708106       0.75332501 </v>
    <v>       0.75228161       0.25375948       0.49897293 </v>
    <v>       0.50056141       0.50299968       0.99881824 </v>
    <v>       0.50147792       0.75081040       0.24999485 </v>
    <v>       0.75082938       0.49919827       0.25350241 </v>
    <v>       0.74724612       0.74786224       0.00315136 </v>
    <v>       0.49845168       0.49815545       0.50062863 </v>
    <v>       0.50029981       0.74938386       0.74935792 </v>
    <v>       0.75195842       0.49951689       0.74911981 </v>
    <v>       0.75054089       0.75162452       0.49892238 </v>
   </varray>
  </structure>
  <varray name="primitive_index" >
   <v type="int" >        1 </v>
   <v type="int" >        2 </v>
   <v type="int" >        3 </v>
   <v type="int" >        4 </v>
   <v type="int" >        5 </v>
   <v type="int" >        6 </v>
   <v type="int" >        7 </v>
   <v type="int" >        8 </v>
   <v type="int" >        9 </v>
   <v type="int" >       10 </v>
   <v type="int" >       11 </v>
   <v type="int" >       12 </v>
   <v type="int" >       13 </v>
   <v type="int" >       14 </v>
   <v type="int" >       15 </v>
   <v type="int" >       16 </v>
   <v type="int" >       17 </v>
   <v type="int" >       18 </v>
   <v type="int" >       19 </v>
   <v type="int" >       20 </v>
   <v type="int" >       21 </v>
   <v type="int" >       22 </v>
   <v type="int" >       23 </v>
   <v type="int" >       24 </v>
   <v type="int" >       25 </v>
   <v type="int" >       26 </v>
   <v type="int" >       27 </v>
   <v type="int" >       28 </v>
   <v type="int" >       29 </v>
   <v type="int" >       30 </v>
   <v type="int" >       31 </v>
   <v type="int" >       32 </v>
   <v type="int" >       33 </v>
   <v type="int" >       34 </v>
   <v type="int" >       35 </v>
   <v type="int" >       36 </v>
   <v type="int" >       37 </v>
   <v type="int" >       38 </v>
   <v type="int" >       39 </v>
   <v type="int" >       40 </v>
   <v type="int" >       41 </v>
   <v type="int" >       42 </v>
   <v type="int" >       43 </v>
   <v type="int" >       44 </v>
   <v type="int" >       45 </v>
   <v type="int" >       46 </v>
   <v type="int" >       47 </v>
   <v type="int" >       48 </v>
   <v type="int" >       49 </v>
   <v type="int" >       50 </v>
   <v type="int" >       51 </v>
   <v type="int" >       52 </v>
   <v type="int" >       53 </v>
   <v type="int" >       54 </v>
   <v type="int" >       55 </v>
   <v type="int" >       56 </v>
   <v type="int" >       57 </v>
   <v type="int" >       58 </v>
   <v type="int" >       59 </v>
   <v type="int" >       60 </v>
   <v type="int" >       61 </v>
   <v type="int" >       62 </v>
   <v type="int" >       63 </v>
   <v type="int" >       64 </v>
  </varray>
 </primitive_cell>
 <kpoints>
  <generation param="Monkhorst-Pack">
   <v type="int" name="divisions">       3        3        3 </v>
   <v name="usershift">      0.00000000       0.00000000       0.00000000 </v>
   <v name="genvec1">      0.33333333       0.00000000       0.00000000 </v>
   <v name="genvec2">      0.00000000       0.33333333       0.00000000 </v>
   <v name="genvec3">      0.00000000       0.00000000       0.33333333 </v>
   <v name="shift">      0.00000000       0.00000000       0.00000000 </v>
  </generation>
  <varray name="kpointlist" >
   <v>       0.00000000       0.00000000       0.00000000 </v>
   <v>       0.33333333       0.00000000       0.00000000 </v>
   <v>       0.00000000       0.33333333       0.00000000 </v>
   <v>       0.00000000       0.00000000       0.33333333 </v>
   <v>       0.33333333       0.33333333       0.00000000 </v>
   <v>       0.00000000       0.33333333       0.33333333 </v>
   <v>       0.33333333       0.00000000       0.33333333 </v>
   <v>      -0.33333333       0.33333333       0.00000000 </v>
   <v>      -0.33333333       0.00000000       0.33333333 </v>
   <v>       0.00000000      -0.33333333       0.33333333 </v>
   <v>       0.33333333       0.33333333       0.33333333 </v>
   <v>      -0.33333333       0.33333333       0.33333333 </v>
   <v>      -0.33333333      -0.33333333       0.33333333 </v>
   <v>       0.33333333      -0.33333333       0.33333333 </v>
  </varray>
  <varray name="weights" >
   <v>       0.03703704 </v>
   <v>       0.07407407 </v>
   <v>       0.07407407 </v>
   <v>       0.07407407 </v>
   <v>       0.07407407 </v>
   <v>       0.07407407 </v>
   <v>       0.07407407 </v>
   <v>       0.07407407 </v>
   <v>       0.07407407 </v>
   <v>       0.07407407 </v>
   <v>       0.07407407 </v>
   <v>       0.07407407 </v>
   <v>       0.07407407 </v>
   <v>       0.07407407 </v>
  </varray>
 </kpoints>
 <parameters>
  <separator name="general" >
   <i type="string" name="SYSTEM">unknown system</i>
   <i type="logical" name="LCOMPAT"> F  </i>
  </separator>
  <separator name="electronic" >
   <i type="string" name="PREC">normal</i>
   <i name="ENMAX">    400.00000000</i>
   <i name="ENAUG">    644.87300000</i>
   <i name="EDIFF">      0.00000001</i>
   <i type="int" name="IALGO">    38</i>
   <i type="int" name="IWAVPR">    10</i>
   <i type="int" name="NBANDS">   168</i>
   <i type="int" name="NBANDSLOW">    -1</i>
   <i type="int" name="NBANDSHIGH">    -1</i>
   <i name="NELECT">    256.00000000</i>
   <i type="int" name="TURBO">     0</i>
   <i type="int" name="IRESTART">     0</i>
   <i type="int" name="NREBOOT">     0</i>
   <i type="int" name="NMIN">     0</i>
   <i name="EREF">      0.00000000</i>
   <separator name="electronic smearing" >
    <i type="int" name="ISMEAR">     1</i>
    <i name="SIGMA">      0.20000000</i>
    <i name="KSPACING">      0.50000000</i>
    <i type="logical" name="KGAMMA"> T  </i>
    <i type="logical" name="KBLOWUP"> T  </i>
   </separator>
   <separator name="electronic projectors" >
    <i type="logical" name="LREAL"> F  </i>
    <v name="ROPT">      0.00000000      0.00000000</v>
    <i type="int" name="LMAXPAW">  -100</i>
    <i type="int" name="LMAXMIX">     2</i>
    <i type="logical" name="NLSPLINE"> F  </i>
   </separator>
   <separator name="electronic startup" >
    <i type="int" name="ISTART">     0</i>
    <i type="int" name="ICHARG">     2</i>
    <i type="int" name="INIWAV">     1</i>
   </separator>
   <separator name="electronic spin" >
    <i type="int" name="ISPIN">     1</i>
    <i type="logical" name="LNONCOLLINEAR"> F  </i>
    <v name="MAGMOM">      1.00000000      1.00000000      1.00000000      1.00000000      1.00000000      1.00000000      1.00000000      1.00000000      1.00000000      1.00000000      1.00000000      1.00000000      1.00000000      1.00000000      1.00000000      1.00000000      1.00000000      1.00000000      1.00000000      1.00000000
      1.00000000      1.00000000      1.00000000      1.00000000      1.00000000      1.00000000      1.00000000      1.00000000      1.00000000      1.00000000      1.00000000      1.00000000      1.00000000      1.00000000      1.00000000      1.00000000      1.00000000      1.00000000      1.00000000      1.00000000
      1.00000000      1.00000000      1.00000000      1.00000000      1.00000000      1.00000000      1.00000000      1.00000000      1.00000000      1.00000000      1.00000000      1.00000000      1.00000000      1.00000000      1.00000000      1.00000000      1.00000000      1.00000000      1.00000000      1.00000000
      1.00000000      1.00000000      1.00000000      1.00000000</v>
    <i name="NUPDOWN">     -1.00000000</i>
    <i type="logical" name="LSORBIT"> F  </i>
    <v name="SAXIS">      0.00000000      0.00000000      1.00000000</v>
    <i type="logical" name="LSPIRAL"> F  </i>
    <v name="QSPIRAL">      0.00000000      0.00000000      0.00000000</v>
    <i type="logical" name="LZEROZ"> F  </i>
   </separator>
   <separator name="electronic exchange-correlation" >
    <i type="logical" name="LASPH"> F  </i>
    <i type="logical" name="LMETAGGA"> F  </i>
   </separator>
   <separator name="electronic convergence" >
    <i type="int" name="NELM">    60</i>
    <i type="int" name="NELMDL">    -5</i>
    <i type="int" name="NELMIN">     2</i>
    <i name="ENINI">    400.00000000</i>
    <separator name="electronic convergence detail" >
     <i type="logical" name="LDIAG"> T  </i>
     <i type="logical" name="LSUBROT"> F  </i>
     <i name="WEIMIN">      0.00000000</i>
     <i name="EBREAK">      0.00000000</i>
     <i name="DEPER">      0.30000000</i>
     <i type="int" name="NRMM">     4</i>
     <i name="TIME">      0.40000000</i>
    </separator>
   </separator>
   <separator name="electronic mixer" >
    <i name="AMIX">      0.40000000</i>
    <i name="BMIX">      1.00000000</i>
    <i name="AMIN">      0.10000000</i>
    <i name="AMIX_MAG">      1.60000000</i>
    <i name="BMIX_MAG">      1.00000000</i>
    <separator name="electronic mixer details" >
     <i type="int" name="IMIX">     4</i>
     <i type="logical" name="MIXFIRST"> F  </i>
     <i type="int" name="MAXMIX">   -45</i>
     <i name="WC">    100.00000000</i>
     <i type="int" name="INIMIX">     1</i>
     <i type="int" name="MIXPRE">     1</i>
     <i type="int" name="MREMOVE">     5</i>
    </separator>
   </separator>
   <separator name="electronic dipolcorrection" >
    <i type="logical" name="LDIPOL"> F  </i>
    <i type="logical" name="LMONO"> F  </i>
    <i type="int" name="IDIPOL">     0</i>
    <i name="EPSILON">      1.00000000</i>
    <v name="DIPOL">   -100.00000000   -100.00000000   -100.00000000</v>
    <i name="EFIELD">      0.00000000</i>
   </separator>
  </separator>
  <separator name="grids" >
   <i type="int" name="NGX">    48</i>
   <i type="int" name="NGY">    48</i>
   <i type="int" name="NGZ">    48</i>
   <i type="int" name="NGXF">    96</i>
   <i type="int" name="NGYF">    96</i>
   <i type="int" name="NGZF">    96</i>
   <i type="logical" name="ADDGRID"> F  </i>
  </separator>
  <separator name="ionic" >
   <i type="int" name="NSW">     0</i>
   <i type="int" name="IBRION">    -1</i>
   <i type="int" name="MDALGO">     0</i>
   <i type="int" name="ISIF">     3</i>
   <i name="PSTRESS">      0.00000000</i>
   <i name="EDIFFG">      0.00000010</i>
   <i type="int" name="NFREE">     0</i>
   <i name="POTIM">      0.50000000</i>
   <i name="SMASS">     -3.00000000</i>
   <i name="SCALEE">      1.00000000</i>
  </separator>
  <separator name="ionic md" >
   <i name="TEBEG">      0.00010000</i>
   <i name="TEEND">      0.00010000</i>
   <i type="int" name="NBLOCK">     1</i>
   <i type="int" name="KBLOCK">     1</i>
   <i type="int" name="NPACO">   256</i>
   <i name="APACO">     16.00000000</i>
  </separator>
  <separator name="symmetry" >
   <i type="int" name="ISYM">     0</i>
   <i name="SYMPREC">      0.00001000</i>
  </separator>
  <separator name="dos" >
   <i type="int" name="LORBIT">     0</i>
   <v name="RWIGS">     -1.00000000     -1.00000000</v>
   <i type="int" name="NEDOS">   301</i>
   <i name="EMIN">     10.00000000</i>
   <i name="EMAX">    -10.00000000</i>
   <i name="EFERMI">      0.00000000</i>
  </separator>
  <separator name="writing" >
   <i type="int" name="NWRITE">     2</i>
   <i type="logical" name="LWAVE"> F  </i>
   <i type="logical" name="LDOWNSAMPLE"> F  </i>
   <i type="logical" name="LCHARG"> F  </i>
   <i type="logical" name="LPARD"> F  </i>
   <i type="logical" name="LVTOT"> F  </i>
   <i type="logical" name="LVHAR"> F  </i>
   <i type="logical" name="LELF"> F  </i>
   <i type="logical" name="LOPTICS"> F  </i>
   <v name="STM">      0.00000000      0.00000000      0.00000000      0.00000000      0.00000000      0.00000000      0.00000000</v>
  </separator>
  <separator name="performance" >
   <i type="int" name="NPAR">     8</i>
   <i type="int" name="NSIM">     4</i>
   <i type="int" name="NBLK">    -1</i>
   <i type="logical" name="LPLANE"> T  </i>
   <i type="logical" name="LSCALAPACK"> T  </i>
   <i type="logical" name="LSCAAWARE"> F  </i>
   <i type="logical" name="LSCALU"> F  </i>
   <i type="logical" name="LASYNC"> F  </i>
   <i type="logical" name="LORBITALREAL"> F  </i>
  </separator>
  <separator name="miscellaneous" >
   <i type="int" name="IDIOT">     3</i>
   <i type="int" name="PHON_NSTRUCT">    -1</i>
   <i type="logical" name="LMUSIC"> F  </i>
   <v name="POMASS">     12.01100000     28.08500000</v>
   <v name="DARWINR">      0.00000000      0.00000000</v>
   <v name="DARWINV">      1.00000000      1.00000000</v>
   <i type="logical" name="LCORR"> T  </i>
  </separator>
  <i type="logical" name="GGA_COMPAT"> T  </i>
  <i type="logical" name="LBERRY"> F  </i>
  <i type="int" name="ICORELEVEL">     0</i>
  <i type="logical" name="LDAU"> F  </i>
  <i type="int" name="I_CONSTRAINED_M">     0</i>
  <separator name="electronic exchange-correlation" >
   <i type="string" name="GGA">PE</i>
   <i type="int" name="VOSKOWN">     0</i>
   <i type="logical" name="LHFCALC"> F  </i>
   <i type="string" name="PRECFOCK"></i>
   <i type="logical" name="LSYMGRAD"> F  </i>
   <i type="logical" name="LHFONE"> F  </i>
   <i type="logical" name="LRHFCALC"> F  </i>
   <i type="logical" name="LTHOMAS"> F  </i>
   <i type="logical" name="LMODELHF"> F  </i>
   <i type="logical" name="LFOCKACE"> F  </i>
   <i name="ENCUT4O">     -1.00000000</i>
   <i type="int" name="EXXOEP">     0</i>
   <i type="int" name="FOURORBIT">     0</i>
   <i name="AEXX">      0.00000000</i>
   <i name="HFALPHA">      0.00000000</i>
   <i name="MCALPHA">      0.00000000</i>
   <i name="ALDAX">      1.00000000</i>
   <i name="AGGAX">      1.00000000</i>
   <i name="ALDAC">      1.00000000</i>
   <i name="AGGAC">      1.00000000</i>
   <i type="int" name="NKREDX">     1</i>
   <i type="int" name="NKREDY">     1</i>
   <i type="int" name="NKREDZ">     1</i>
   <i type="logical" name="SHIFTRED"> F  </i>
   <i type="logical" name="ODDONLY"> F  </i>
   <i type="logical" name="EVENONLY"> F  </i>
   <i type="int" name="LMAXFOCK">     0</i>
   <i type="int" name="NMAXFOCKAE">     0</i>
   <i type="logical" name="LFOCKAEDFT"> F  </i>
   <i name="HFSCREEN">      0.00000000</i>
   <i name="HFSCREENC">      0.00000000</i>
   <i type="int" name="NBANDSGWLOW">     0</i>
  </separator>
  <separator name="vdW DFT" >
   <i type="logical" name="LUSE_VDW"> F  </i>
   <i name="Zab_VDW">     -0.84910000</i>
   <i name="PARAM1">      0.12340000</i>
   <i name="PARAM2">      1.00000000</i>
   <i name="PARAM3">      0.00000000</i>
  </separator>
  <separator name="model GW" >
   <i type="int" name="MODEL_GW">     0</i>
   <i name="MODEL_EPS0">      6.26613487</i>
   <i name="MODEL_ALPHA">      1.00000000</i>
  </separator>
  <separator name="linear response parameters" >
   <i type="logical" name="LEPSILON"> F  </i>
   <i type="logical" name="LRPA"> F  </i>
   <i type="logical" name="LNABLA"> F  </i>
   <i type="logical" name="LVEL"> F  </i>
   <i type="int" name="KINTER">     0</i>
   <i name="CSHIFT">      0.10000000</i>
   <i name="OMEGAMAX">     -1.00000000</i>
   <i name="DEG_THRESHOLD">      0.00200000</i>
   <i name="RTIME">     -0.10000000</i>
   <i name="WPLASMAI">      0.00000000</i>
   <v name="DFIELD">      0.00000000      0.00000000      0.00000000</v>
   <v name="WPLASMA">      0.00000000      0.00000000      0.00000000      0.00000000      0.00000000      0.00000000      0.00000000      0.00000000      0.00000000</v>
  </separator>
  <separator name="orbital magnetization" >
   <i type="logical" name="NUCIND"> F  </i>
   <v name="MAGPOS">      0.00000000      0.00000000      0.00000000</v>
   <i type="logical" name="LNICSALL"> T  </i>
   <i type="logical" name="ORBITALMAG"> F  </i>
   <i type="logical" name="LMAGBLOCH"> F  </i>
   <i type="logical" name="LCHIMAG"> F  </i>
   <i type="logical" name="LGAUGE"> T  </i>
   <i type="int" name="MAGATOM">     0</i>
   <v name="MAGDIPOL">      0.00000000      0.00000000      0.00000000</v>
   <v name="AVECCONST">      0.00000000      0.00000000      0.00000000</v>
  </separator>
  <separator name="response functions" >
   <i type="logical" name="LFINITE_TEMPERATURE"> F  </i>
   <i type="logical" name="LADDER"> F  </i>
   <i type="logical" name="LRPAFORCE"> F  </i>
   <i type="logical" name="LFXC"> F  </i>
   <i type="logical" name="LHARTREE"> T  </i>
   <i type="int" name="IBSE">     0</i>
   <v type="int" name="KPOINT">    -1     0     0     0</v>
   <i type="logical" name="LTCTC"> F  </i>
   <i type="logical" name="LTCTE"> F  </i>
   <i type="logical" name="LTETE"> F  </i>
   <i type="logical" name="LTRIPLET"> F  </i>
   <i type="logical" name="LFXCEPS"> F  </i>
   <i type="logical" name="LFXHEG"> F  </i>
   <i type="int" name="NATURALO">     2</i>
   <i type="logical" name="LHOLEGF"> F  </i>
   <i type="logical" name="L2ORDER"> F  </i>
   <i type="logical" name="LDMP1"> F  </i>
   <i type="logical" name="LMP2LT"> F  </i>
   <i type="logical" name="LSMP2LT"> F  </i>
   <i type="logical" name="LGWLF"> F  </i>
   <i name="ENCUTGW">     -2.00000000</i>
   <i name="ENCUTGWSOFT">     -2.00000000</i>
   <i name="ENCUTLF">     -1.00000000</i>
   <i type="logical" name="LESF_SPLINES"> F  </i>
   <i type="int" name="LMAXMP2">    -1</i>
   <i name="SCISSOR">      0.00000000</i>
   <i type="int" name="NOMEGA">     0</i>
   <i type="int" name="NOMEGAR">     0</i>
   <i type="int" name="NBANDSGW">    -1</i>
   <i type="int" name="NBANDSO">    -1</i>
   <i type="int" name="NBANDSV">    -1</i>
   <i type="int" name="NELM">    60</i>
   <i type="int" name="NELMHF">     1</i>
   <i type="int" name="DIM">     3</i>
   <i type="int" name="IESPILON">     4</i>
   <i type="int" name="ANTIRES">     0</i>
   <i name="OMEGAMAX">    -30.00000000</i>
   <i name="OMEGAMIN">    -30.00000000</i>
   <i name="OMEGATL">   -200.00000000</i>
   <i type="int" name="OMEGAGRID">     0</i>
   <i name="CSHIFT">     -0.10000000</i>
   <i type="logical" name="LSELFENERGY"> F  </i>
   <i type="logical" name="LSPECTRAL"> F  </i>
   <i type="logical" name="LSPECTRALGW"> F  </i>
   <i type="logical" name="LSINGLES"> F  </i>
   <i type="logical" name="LFERMIGW"> F  </i>
   <i type="logical" name="ODDONLYGW"> F  </i>
   <i type="logical" name="EVENONLYGW"> F  </i>
   <i type="int" name="NKREDLFX">     1</i>
   <i type="int" name="NKREDLFY">     1</i>
   <i type="int" name="NKREDLFZ">     1</i>
   <i type="int" name="MAXMEM">  2800</i>
   <i type="int" name="TELESCOPE">     0</i>
   <i type="int" name="NTAUPAR">    -1</i>
   <i type="int" name="NOMEGAPAR">    -1</i>
   <i name="DAMP_NEWTON">      0.80000001</i>
   <i name="LAMBDA">      1.00000000</i>
  </separator>
  <separator name="External order field" >
   <i name="OFIELD_KAPPA">      0.00000000</i>
   <v name="OFIELD_K">      0.00000000      0.00000000      0.00000000</v>
   <i name="OFIELD_Q6_NEAR">      0.00000000</i>
   <i name="OFIELD_Q6_FAR">      0.00000000</i>
   <i name="OFIELD_A">      0.00000000</i>
  </separator>
 </parameters>
 <atominfo>
  <atoms>      64 </atoms>
  <types>       2 </types>
  <array name="atoms" >
   <dimension dim="1">ion</dimension>
   <field type="string">element</field>
   <field type="int">atomtype</field>
   <set>
    <rc><c>C </c><c>   1</c></rc>
    <rc><c>C </c><c>   1</c></rc>
    <rc><c>C </c><c>   1</c></rc>
    <rc><c>C </c><c>   1</c></rc>
    <rc><c>C </c><c>   1</c></rc>
    <rc><c>C </c><c>   1</c></rc>
    <rc><c>C </c><c>   1</c></rc>
    <rc><c>C </c><c>   1</c></rc>
    <rc><c>C </c><c>   1</c></rc>
    <rc><c>C </c><c>   1</c></rc>
    <rc><c>C </c><c>   1</c></rc>
    <rc><c>C </c><c>   1</c></rc>
    <rc><c>C </c><c>   1</c></rc>
    <rc><c>C </c><c>   1</c></rc>
    <rc><c>C </c><c>   1</c></rc>
    <rc><c>C </c><c>   1</c></rc>
    <rc><c>C </c><c>   1</c></rc>
    <rc><c>C </c><c>   1</c></rc>
    <rc><c>C </c><c>   1</c></rc>
    <rc><c>C </c><c>   1</c></rc>
    <rc><c>C </c><c>   1</c></rc>
    <rc><c>C </c><c>   1</c></rc>
    <rc><c>C </c><c>   1</c></rc>
    <rc><c>C </c><c>   1</c></rc>
    <rc><c>C </c><c>   1</c></rc>
    <rc><c>C </c><c>   1</c></rc>
    <rc><c>C </c><c>   1</c></rc>
    <rc><c>C </c><c>   1</c></rc>
    <rc><c>C </c><c>   1</c></rc>
    <rc><c>C </c><c>   1</c></rc>
    <rc><c>C </c><c>   1</c></rc>
    <rc><c>C </c><c>   1</c></rc>
    <rc><c>Si</c><c>   2</c></rc>
    <rc><c>Si</c><c>   2</c></rc>
    <rc><c>Si</c><c>   2</c></rc>
    <rc><c>Si</c><c>   2</c></rc>
    <rc><c>Si</c><c>   2</c></rc>
    <rc><c>Si</c><c>   2</c></rc>
    <rc><c>Si</c><c>   2</c></rc>
    <rc><c>Si</c><c>   2</c></rc>
    <rc><c>Si</c><c>   2</c></rc>
    <rc><c>Si</c><c>   2</c></rc>
    <rc><c>Si</c><c>   2</c></rc>
    <rc><c>Si</c><c>   2</c></rc>
    <rc><c>Si</c><c>   2</c></rc>
    <rc><c>Si</c><c>   2</c></rc>
    <rc><c>Si</c><c>   2</c></rc>
    <rc><c>Si</c><c>   2</c></rc>
    <rc><c>Si</c><c>   2</c></rc>
    <rc><c>Si</c><c>   2</c></rc>
    <rc><c>Si</c><c>   2</c></rc>
    <rc><c>Si</c><c>   2</c></rc>
    <rc><c>Si</c><c>   2</c></rc>
    <rc><c>Si</c><c>   2</c></rc>
    <rc><c>Si</c><c>   2</c></rc>
    <rc><c>Si</c><c>   2</c></rc>
    <rc><c>Si</c><c>   2</c></rc>
    <rc><c>Si</c><c>   2</c></rc>
    <rc><c>Si</c><c>   2</c></rc>
    <rc><c>Si</c><c>   2</c></rc>
    <rc><c>Si</c><c>   2</c></rc>
    <rc><c>Si</c><c>   2</c></rc>
    <rc><c>Si</c><c>   2</c></rc>
    <rc><c>Si</c><c>   2</c></rc>
   </set>
  </array>
  <array name="atomtypes" >
   <dimension dim="1">type</dimension>
   <field type="int">atomspertype</field>
   <field type="string">element</field>
   <field>mass</field>
   <field>valence</field>
   <field type="string">pseudopotential</field>
   <set>
    <rc><c>  32</c><c>C </c><c>     12.01100000</c><c>      4.00000000</c><c>  PAW_PBE C 08Apr2002                   </c></rc>
    <rc><c>  32</c><c>Si</c><c>     28.08500000</c><c>      4.00000000</c><c>  PAW_PBE Si 05Jan2001                  </c></rc>
   </set>
  </array>
 </atominfo>
 <structure name="initialpos" >
  <crystal>
   <varray name="basis" >
    <v>       8.74331558       0.00000000       0.00000000 </v>
    <v>       0.00000000       8.74331558       0.00000000 </v>
    <v>       0.00000000       0.00000000       8.74331558 </v>
   </varray>
   <i name="volume">    668.38771987 </i>
   <varray name="rec_basis" >
    <v>       0.11437309       0.00000000       0.00000000 </v>
    <v>       0.00000000       0.11437309       0.00000000 </v>
    <v>       0.00000000       0.00000000       0.11437309 </v>
   </varray>
  </crystal>
  <varray name="positions" >
   <v>       0.12095083       0.12557891       0.12454345 </v>
   <v>       0.12290488       0.37914185       0.37264253 </v>
   <v>       0.37697417       0.12587902       0.37305785 </v>
   <v>       0.37460602       0.37456447       0.12353075 </v>
   <v>       0.12164359       0.12398656       0.62511790 </v>
   <v>       0.12368899       0.37520242       0.87407852 </v>
   <v>       0.37731663       0.12539029       0.87433521 </v>
   <v>       0.37550415       0.37536210       0.62672297 </v>
   <v>       0.12894798       0.62449882       0.12400602 </v>
   <v>       0.12808578       0.87332112       0.37380806 </v>
   <v>       0.37422916       0.62621264       0.37643389 </v>
   <v>       0.37538325       0.87432715       0.12157634 </v>
   <v>       0.12374528       0.62247616       0.62559225 </v>
   <v>       0.12269686       0.87190335       0.87421600 </v>
   <v>       0.37375308       0.62394465       0.87599770 </v>
   <v>       0.37587685       0.87491351       0.62340900 </v>
   <v>       0.62548833       0.12646244       0.12451125 </v>
   <v>       0.61993854       0.37382812       0.37703298 </v>
   <v>       0.87779949       0.12449789       0.37267074 </v>
   <v>       0.87641480       0.37494271       0.12297672 </v>
   <v>       0.62676634       0.12353345       0.62502823 </v>
   <v>       0.62438002       0.37412420       0.87462874 </v>
   <v>       0.87558917       0.12641488       0.87672305 </v>
   <v>       0.87537188       0.37647728       0.62750808 </v>
   <v>       0.62759870       0.62464257       0.12582082 </v>
   <v>       0.62634122       0.87655539       0.37577379 </v>
   <v>       0.87700439       0.62557016       0.37651113 </v>
   <v>       0.87797816       0.87586583       0.12374512 </v>
   <v>       0.62347901       0.62529358       0.62511772 </v>
   <v>       0.62480548       0.87685088       0.87421942 </v>
   <v>       0.87373226       0.62236505       0.87448360 </v>
   <v>       0.87838202       0.87810227       0.62703476 </v>
   <v>       0.99995553       0.99824569       0.00146599 </v>
   <v>       0.00024935       0.25175694       0.25147345 </v>
   <v>       0.25125312       0.99761298       0.25144644 </v>
   <v>       0.24790616       0.24978842       0.00015225 </v>
   <v>       0.00143210       0.99735228       0.50033123 </v>
   <v>       0.99773840       0.25099083       0.74939802 </v>
   <v>       0.25009526       0.00263078       0.74838600 </v>
   <v>       0.24793595       0.25092293       0.49825263 </v>
   <v>       0.99828831       0.49965842       0.99902355 </v>
   <v>       0.99794833       0.75106473       0.25099178 </v>
   <v>       0.25166821       0.49674611       0.25058470 </v>
   <v>       0.25292882       0.75073476       0.00438517 </v>
   <v>       0.99983287       0.50250856       0.49950081 </v>
   <v>       0.00149907       0.75150802       0.75200441 </v>
   <v>       0.25289188       0.50102183       0.74818091 </v>
   <v>       0.25160200       0.74565808       0.49801109 </v>
   <v>       0.50218328       0.99859049       0.99832301 </v>
   <v>       0.49834127       0.24820913       0.24848061 </v>
   <v>       0.74557441       0.00256652       0.24763693 </v>
   <v>       0.75155346       0.24670560       0.00196169 </v>
   <v>       0.50330982       0.99974315       0.49601128 </v>
   <v>       0.50040078       0.24944011       0.74818603 </v>
   <v>       0.75128337       0.99708106       0.75332501 </v>
   <v>       0.75228161       0.25375948       0.49897293 </v>
   <v>       0.50056141       0.50299968       0.99881824 </v>
   <v>       0.50147792       0.75081040       0.24999485 </v>
   <v>       0.75082938       0.49919827       0.25350241 </v>
   <v>       0.74724612       0.74786224       0.00315136 </v>
   <v>       0.49845168       0.49815545       0.50062863 </v>
   <v>       0.50029981       0.74938386       0.74935792 </v>
   <v>       0.75195842       0.49951689       0.74911981 </v>
   <v>       0.75054089       0.75162452       0.49892238 </v>
  </varray>
 </structure>
 <calculation>
  <scstep>
   <time name="dav">    4.83    4.83</time>
   <time name="total">    4.86    4.86</time>
   <energy>
    <i name="alphaZ">    354.85177120 </i>
    <i name="ewald">  -9082.47350183 </i>
    <i name="hartreedc">   -671.21736510 </i>
    <i name="XCdc">    145.83911081 </i>
    <i name="pawpsdc">   6292.66707184 </i>
    <i name="pawaedc">  -5747.90303932 </i>
    <i name="eentropy">      0.01005652 </i>
    <i name="bandstr">   1370.85095410 </i>
    <i name="atom">   8006.17504320 </i>
    <i name="e_fr_energy">    668.80010142 </i>
    <i name="e_wo_entrp">    668.79004491 </i>
    <i name="e_0_energy">    668.79674925 </i>
   </energy>
  </scstep>
  <scstep>
   <time name="dav">    5.85    5.85</time>
   <time name="total">    5.85    5.86</time>
   <energy>
    <i name="e_fr_energy">   -462.93772133 </i>
    <i name="e_wo_entrp">   -462.95363040 </i>
    <i name="e_0_energy">   -462.94302435 </i>
   </energy>
  </scstep>
  <scstep>
   <time name="dav">    5.55    5.55</time>
   <time name="total">    5.55    5.55</time>
   <energy>
    <i name="e_fr_energy">   -537.93246743 </i>
    <i name="e_wo_entrp">   -537.95254799 </i>
    <i name="e_0_energy">   -537.93916095 </i>
   </energy>
  </scstep>
  <scstep>
   <time name="dav">    5.55    5.55</time>
   <time name="total">    5.55    5.55</time>
   <energy>
    <i name="e_fr_energy">   -539.58668839 </i>
    <i name="e_wo_entrp">   -539.60744691 </i>
    <i name="e_0_energy">   -539.59360790 </i>
   </energy>
  </scstep>
  <scstep>
   <time name="dav">    5.43    5.44</time>
   <time name="total">    5.55    5.55</time>
   <energy>
    <i name="e_fr_energy">   -539.63242800 </i>
    <i name="e_wo_entrp">   -539.65317399 </i>
    <i name="e_0_energy">   -539.63934333 </i>
   </energy>
  </scstep>
  <scstep>
   <time name="dav">    5.27    5.27</time>
   <time name="total">    5.74    5.74</time>
   <energy>
    <i name="e_fr_energy">   -483.03246912 </i>
    <i name="e_wo_entrp">   -483.04287441 </i>
    <i name="e_0_energy">   -483.03593755 </i>
   </energy>
  </scstep>
  <scstep>
   <time name="dav">    5.68    5.68</time>
   <time name="total">    6.29    6.29</time>
   <energy>
    <i name="e_fr_energy">   -481.67368603 </i>
    <i name="e_wo_entrp">   -481.68303174 </i>
    <i name="e_0_energy">   -481.67680126 </i>
   </energy>
  </scstep>
  <scstep>
   <time name="dav">    5.29    5.29</time>
   <time name="total">    5.44    5.44</time>
   <energy>
    <i name="e_fr_energy">   -481.44606007 </i>
    <i name="e_wo_entrp">   -481.45559406 </i>
    <i name="e_0_energy">   -481.44923806 </i>
   </energy>
  </scstep>
  <scstep>
   <time name="dav">    5.33    5.33</time>
   <time name="total">    5.49    5.49</time>
   <energy>
    <i name="e_fr_energy">   -481.42968210 </i>
    <i name="e_wo_entrp">   -481.43911307 </i>
    <i name="e_0_energy">   -481.43282575 </i>
   </energy>
  </scstep>
  <scstep>
   <time name="dav">    5.60    5.60</time>
   <time name="total">    5.76    5.76</time>
   <energy>
    <i name="e_fr_energy">   -481.43274766 </i>
    <i name="e_wo_entrp">   -481.44218014 </i>
    <i name="e_0_energy">   -481.43589182 </i>
   </energy>
  </scstep>
  <scstep>
   <time name="dav">    5.12    5.12</time>
   <time name="total">    5.28    5.28</time>
   <energy>
    <i name="e_fr_energy">   -481.43375653 </i>
    <i name="e_wo_entrp">   -481.44319027 </i>
    <i name="e_0_energy">   -481.43690111 </i>
   </energy>
  </scstep>
  <scstep>
   <time name="dav">    6.05    6.05</time>
   <time name="total">    6.21    6.21</time>
   <energy>
    <i name="e_fr_energy">   -481.43377886 </i>
    <i name="e_wo_entrp">   -481.44320764 </i>
    <i name="e_0_energy">   -481.43692179 </i>
   </energy>
  </scstep>
  <scstep>
   <time name="dav">    5.12    5.12</time>
   <time name="total">    5.28    5.28</time>
   <energy>
    <i name="e_fr_energy">   -481.43379081 </i>
    <i name="e_wo_entrp">   -481.44322155 </i>
    <i name="e_0_energy">   -481.43693439 </i>
   </energy>
  </scstep>
  <scstep>
   <time name="dav">    5.38    5.38</time>
   <time name="total">    5.54    5.54</time>
   <energy>
    <i name="e_fr_energy">   -481.43379715 </i>
    <i name="e_wo_entrp">   -481.44322783 </i>
    <i name="e_0_energy">   -481.43694071 </i>
   </energy>
  </scstep>
  <scstep>
   <time name="dav">    5.45    5.45</time>
   <time name="total">    5.61    5.61</time>
   <energy>
    <i name="e_fr_energy">   -481.43379904 </i>
    <i name="e_wo_entrp">   -481.44322958 </i>
    <i name="e_0_energy">   -481.43694255 </i>
   </energy>
  </scstep>
  <scstep>
   <time name="dav">    5.77    5.77</time>
   <time name="total">    6.92    6.93</time>
   <energy>
    <i name="e_fr_energy">   -481.43379874 </i>
    <i name="e_wo_entrp">   -481.44322938 </i>
    <i name="e_0_energy">   -481.43694229 </i>
   </energy>
  </scstep>
  <scstep>
   <time name="dav">    5.14    5.14</time>
   <time name="total">    5.32    5.32</time>
   <energy>
    <i name="e_fr_energy">   -481.43379899 </i>
    <i name="e_wo_entrp">   -481.44322958 </i>
    <i name="e_0_energy">   -481.43694252 </i>
   </energy>
  </scstep>
  <scstep>
   <time name="dav">    3.38    3.38</time>
   <time name="total">    3.55    3.55</time>
   <energy>
    <i name="e_fr_energy">   -481.43379902 </i>
    <i name="e_wo_entrp">   -481.44322959 </i>
    <i name="e_0_energy">   -481.43694254 </i>
   </energy>
  </scstep>
  <scstep>
   <time name="dav">    3.34    3.34</time>
   <time name="total">    3.50    3.50</time>
   <energy>
    <i name="e_fr_energy">   -481.43379897 </i>
    <i name="e_wo_entrp">   -481.44322954 </i>
    <i name="e_0_energy">   -481.43694249 </i>
   </energy>
  </scstep>
  <scstep>
   <time name="dav">    3.33    3.33</time>
   <time name="total">    3.36    3.36</time>
   <energy>
    <i name="alphaZ">    354.85177120 </i>
    <i name="ewald">  -9082.47350183 </i>
    <i name="hartreedc">  -1023.85941065 </i>
    <i name="XCdc">    179.28118009 </i>
    <i name="pawpsdc">  33031.87610140 </i>
    <i name="pawaedc"> -32492.80779323 </i>
    <i name="eentropy">      0.00943056 </i>
    <i name="bandstr">    545.51338027 </i>
    <i name="atom">   8006.17504320 </i>
    <i name="e_fr_energy">   -481.43379897 </i>
    <i name="e_wo_entrp">   -481.44322954 </i>
    <i name="e_0_energy">   -481.43694250 </i>
   </energy>
  </scstep>
  <structure>
   <crystal>
    <varray name="basis" >
     <v>       8.74331558       0.00000000       0.00000000 </v>
     <v>       0.00000000       8.74331558       0.00000000 </v>
     <v>       0.00000000       0.00000000       8.74331558 </v>
    </varray>
    <i name="volume">    668.38771987 </i>
    <varray name="rec_basis" >
     <v>       0.11437309       0.00000000       0.00000000 </v>
     <v>       0.00000000       0.11437309       0.00000000 </v>
     <v>       0.00000000       0.00000000       0.11437309 </v>
    </varray>
   </crystal>
   <varray name="positions" >
    <v>       0.12095083       0.12557891       0.12454345 </v>
    <v>       0.12290488       0.37914185       0.37264253 </v>
    <v>       0.37697417       0.12587902       0.37305785 </v>
    <v>       0.37460602       0.37456447       0.12353075 </v>
    <v>       0.12164359       0.12398656       0.62511790 </v>
    <v>       0.12368899       0.37520242       0.87407852 </v>
    <v>       0.37731663       0.12539029       0.87433521 </v>
    <v>       0.37550415       0.37536210       0.62672297 </v>
    <v>       0.12894798       0.62449882       0.12400602 </v>
    <v>       0.12808578       0.87332112       0.37380806 </v>
    <v>       0.37422916       0.62621264       0.37643389 </v>
    <v>       0.37538325       0.87432715       0.12157634 </v>
    <v>       0.12374528       0.62247616       0.62559225 </v>
    <v>       0.12269686       0.87190335       0.87421600 </v>
    <v>       0.37375308       0.62394465       0.87599770 </v>
    <v>       0.37587685       0.87491351       0.62340900 </v>
    <v>       0.62548833       0.12646244       0.12451125 </v>
    <v>       0.61993854       0.37382812       0.37703298 </v>
    <v>       0.87779949       0.12449789       0.37267074 </v>
    <v>       0.87641480       0.37494271       0.12297672 </v>
    <v>       0.62676634       0.12353345       0.62502823 </v>
    <v>       0.62438002       0.37412420       0.87462874 </v>
    <v>       0.87558917       0.12641488       0.87672305 </v>
    <v>       0.87537188       0.37647728       0.62750808 </v>
    <v>       0.62759870       0.62464257       0.12582082 </v>
    <v>       0.62634122       0.87655539       0.37577379 </v>
    <v>       0.87700439       0.62557016       0.37651113 </v>
    <v>       0.87797816       0.87586583       0.12374512 </v>
    <v>       0.62347901       0.62529358       0.62511772 </v>
    <v>       0.62480548       0.87685088       0.87421942 </v>
    <v>       0.87373226       0.62236505       0.87448360 </v>
    <v>       0.87838202       0.87810227       0.62703476 </v>
    <v>       0.99995553       0.99824569       0.00146599 </v>
    <v>       0.00024935       0.25175694       0.25147345 </v>
    <v>       0.25125312       0.99761298       0.25144644 </v>
    <v>       0.24790616       0.24978842       0.00015225 </v>
    <v>       0.00143210       0.99735228       0.50033123 </v>
    <v>       0.99773840       0.25099083       0.74939802 </v>
    <v>       0.25009526       0.00263078       0.74838600 </v>
    <v>       0.24793595       0.25092293       0.49825263 </v>
    <v>       0.99828831       0.49965842       0.99902355 </v>
    <v>       0.99794833       0.75106473       0.25099178 </v>
    <v>       0.25166821       0.49674611       0.25058470 </v>
    <v>       0.25292882       0.75073476       0.00438517 </v>
    <v>       0.99983287       0.50250856       0.49950081 </v>
    <v>       0.00149907       0.75150802       0.75200441 </v>
    <v>       0.25289188       0.50102183       0.74818091 </v>
    <v>       0.25160200       0.74565808       0.49801109 </v>
    <v>       0.50218328       0.99859049       0.99832301 </v>
    <v>       0.49834127       0.24820913       0.24848061 </v>
    <v>       0.74557441       0.00256652       0.24763693 </v>
    <v>       0.75155346       0.24670560       0.00196169 </v>
    <v>       0.50330982       0.99974315       0.49601128 </v>
    <v>       0.50040078       0.24944011       0.74818603 </v>
    <v>       0.75128337       0.99708106       0.75332501 </v>
    <v>       0.75228161       0.25375948       0.49897293 </v>
    <v>       0.50056141       0.50299968       0.99881824 </v>
    <v>       0.50147792       0.75081040       0.24999485 </v>
    <v>       0.75082938       0.49919827       0.25350241 </v>
    <v>       0.74724612       0.74786224       0.00315136 </v>
    <v>       0.49845168       0.49815545       0.50062863 </v>
    <v>       0.50029981       0.74938386       0.74935792 </v>
    <v>       0.75195842       0.49951689       0.74911981 </v>
    <v>       0.75054089       0.75162452       0.49892238 </v>
   </varray>
  </structure>
  <varray name="forces" >
   <v>       0.95060597      -0.27215759       0.38831262 </v>
   <v>       0.28718717      -0.63152878       0.57412950 </v>
   <v>      -0.48315901      -0.30386970       0.23849459 </v>
   <v>       0.24225438       0.00722685       0.16757055 </v>
   <v>       0.48836269       0.46632289      -0.28219822 </v>
   <v>       0.27650520       0.00283127      -0.15320214 </v>
   <v>      -0.47588345      -0.08016846       0.14337144 </v>
   <v>      -0.25398786      -0.28725704      -0.57921545 </v>
   <v>      -0.79914780      -0.05263085       0.47548626 </v>
   <v>      -0.44250070      -0.08631493       0.36166252 </v>
   <v>       0.59766956      -0.69253202      -0.60834363 </v>
   <v>       0.60190183       0.40613463       0.86875964 </v>
   <v>       0.40004680       0.56387707      -0.13707736 </v>
   <v>       0.99015093       0.78423945       0.54992125 </v>
   <v>       0.41721692       0.57923263      -0.15878708 </v>
   <v>      -0.09182903       0.02920850      -0.13681083 </v>
   <v>      -0.43567869      -0.36984492      -0.02661539 </v>
   <v>       0.83212427       0.13696484      -0.50148753 </v>
   <v>      -0.55373298       0.14365322       0.40056932 </v>
   <v>      -0.44520669       0.02829507       0.79568476 </v>
   <v>       0.14125954       0.15605910      -0.20137013 </v>
   <v>       0.29373342       0.06934710       0.11618080 </v>
   <v>      -0.06119295      -0.57017427      -0.13904202 </v>
   <v>       0.06603228       0.01913873      -0.93988233 </v>
   <v>      -0.58053446      -0.08765731       0.46230111 </v>
   <v>       0.02602526      -0.29665287      -0.68470175 </v>
   <v>      -0.58834780       0.13187759      -0.15722395 </v>
   <v>      -1.17903924      -0.30203219       0.44405331 </v>
   <v>       0.49026450      -0.10158160      -0.27099950 </v>
   <v>       0.14922385      -0.90189262       0.36960470 </v>
   <v>       0.00612499       0.73495594       0.16034976 </v>
   <v>      -0.53878360      -0.82537525      -0.27210936 </v>
   <v>       0.18164486       0.35701922      -0.57007898 </v>
   <v>      -0.10112824      -0.24755942      -0.57540073 </v>
   <v>      -0.27362981       0.59441792      -0.63492233 </v>
   <v>       0.11984580      -0.05650125      -0.29439814 </v>
   <v>      -0.01622158       0.43133293      -0.37107320 </v>
   <v>       0.38997257      -0.17146199       0.33723287 </v>
   <v>       0.01125875      -0.66097586       0.26742125 </v>
   <v>       0.09317793      -0.06396924       0.32066447 </v>
   <v>       0.66290835       0.20884041       0.02466061 </v>
   <v>       0.90983587      -0.28116398      -0.50885713 </v>
   <v>      -0.11272985       0.81937539      -0.42970208 </v>
   <v>      -0.83893126      -0.41267090      -1.18952909 </v>
   <v>       0.10373250      -0.40026873       0.47540249 </v>
   <v>      -0.37891163      -0.74457257      -0.30046712 </v>
   <v>      -0.80433983      -0.33877911       0.60017879 </v>
   <v>      -0.43619904       0.77221834       0.74805754 </v>
   <v>      -0.44646214       0.54205613      -0.01803802 </v>
   <v>       0.13952998       0.53777629      -0.14729937 </v>
   <v>       1.30604379      -0.31419576       0.31607713 </v>
   <v>      -0.21949323       0.93419035      -0.56353864 </v>
   <v>      -0.52096056       0.29590122       1.05963262 </v>
   <v>       0.28651224      -0.08313060       0.28877397 </v>
   <v>       0.09004147       0.93695624      -0.55090714 </v>
   <v>      -0.25191248      -0.94220967       0.32862903 </v>
   <v>       0.04014235      -0.83823793       0.07900740 </v>
   <v>      -0.21394580      -0.21622010       0.06769404 </v>
   <v>      -0.11179081      -0.22681748      -0.49029682 </v>
   <v>       0.91531301       0.45135248      -0.80821434 </v>
   <v>       0.05255889       0.51940379       0.13757439 </v>
   <v>      -0.29466306       0.21835539       0.08892359 </v>
   <v>      -0.72775638       0.07488108       0.33710160 </v>
   <v>       0.11889202      -0.09303712       0.70830587 </v>
  </varray>
  <varray name="stress" >
   <v>       2.22957551       1.29251531      -2.14345764 </v>
   <v>       1.29251531       2.44607212       0.39418327 </v>
   <v>      -2.14345763       0.39418322       2.51217551 </v>
  </varray>
  <energy>
   <i name="e_fr_energy">   -481.43379897 </i>
   <i name="e_wo_entrp">   -481.44322954 </i>
   <i name="e_0_energy">   -481.43694250 </i>
  </energy>
  <time name="totalsc">  114.64  114.70</time>
  <eigenvalues>
   <array>
    <dimension dim="1">band</dimension>
    <dimension dim="2">kpoint</dimension>
    <dimension dim="3">spin</dimension>
    <field>eigene</field>
    <field>occ</field>
    <set>
     <set comment="spin 1">
      <set comment="kpoint 1">
       <r>   -7.3417    1.0000 </r>
       <r>   -5.8578    1.0000 </r>
       <r>   -5.7864    1.0000 </r>
       <r>   -5.7496    1.0000 </r>
       <r>   -5.7435    1.0000 </r>
       <r>   -5.7162    1.0000 </r>
       <r>   -5.6892    1.0000 </r>
       <r>   -4.4586    1.0000 </r>
       <r>   -4.4542    1.0000 </r>
       <r>   -4.4371    1.0000 </r>
       <r>   -4.3813    1.0000 </r>
       <r>   -4.3805    1.0000 </r>
       <r>   -4.3666    1.0000 </r>
       <r>   -4.3256    1.0000 </r>
       <r>   -4.3216    1.0000 </r>
       <r>   -4.2988    1.0000 </r>
       <r>   -4.2733    1.0000 </r>
       <r>   -4.2382    1.0000 </r>
       <r>   -4.1632    1.0000 </r>
       <r>   -3.8195    1.0000 </r>
       <r>   -3.8000    1.0000 </r>
       <r>   -3.7784    1.0000 </r>
       <r>   -3.7599    1.0000 </r>
       <r>   -2.4130    1.0000 </r>
       <r>   -2.3700    1.0000 </r>
       <r>   -2.3541    1.0000 </r>
       <r>   -2.1972    1.0000 </r>
       <r>   -2.1826    1.0000 </r>
       <r>   -2.1376    1.0000 </r>
       <r>   -2.1104    1.0000 </r>
       <r>   -2.0806    1.0000 </r>
       <r>   -2.0030    1.0000 </r>
       <r>   -0.5206    1.0000 </r>
       <r>   -0.4903    1.0000 </r>
       <r>   -0.4793    1.0000 </r>
       <r>   -0.4721    1.0000 </r>
       <r>    0.2122    1.0000 </r>
       <r>    0.2283    1.0000 </r>
       <r>    0.2460    1.0000 </r>
       <r>    0.9441    1.0000 </r>
       <r>    0.9600    1.0000 </r>
       <r>    0.9836    1.0000 </r>
       <r>    1.0024    1.0000 </r>
       <r>    1.0120    1.0000 </r>
       <r>    1.0343    1.0000 </r>
       <r>    1.9845    1.0000 </r>
       <r>    2.0026    1.0000 </r>
       <r>    2.0152    1.0000 </r>
       <r>    2.0390    1.0000 </r>
       <r>    2.0574    1.0000 </r>
       <r>    2.0740    1.0000 </r>
       <r>    2.0817    1.0000 </r>
       <r>    2.1041    1.0000 </r>
       <r>    2.1153    1.0000 </r>
       <r>    2.1248    1.0000 </r>
       <r>    2.1507    1.0000 </r>
       <r>    2.1562    1.0000 </r>
       <r>    2.9868    1.0000 </r>
       <r>    2.9983    1.0000 </r>
       <r>    3.0262    1.0000 </r>
       <r>    3.0628    1.0000 </r>
       <r>    3.0737    1.0000 </r>
       <r>    3.1048    1.0000 </r>
       <r>    3.3067    1.0000 </r>
       <r>    3.3282    1.0000 </r>
       <r>    3.3404    1.0000 </r>
       <r>    3.3539    1.0000 </r>
       <r>    3.3703    1.0000 </r>
       <r>    3.3968    1.0000 </r>
       <r>    3.6062    1.0000 </r>
       <r>    3.6340    1.0000 </r>
       <r>    3.6382    1.0000 </r>
       <r>    3.6556    1.0000 </r>
       <r>    3.6787    1.0000 </r>
       <r>    3.6888    1.0000 </r>
       <r>    3.7031    1.0000 </r>
       <r>    3.7180    1.0000 </r>
       <r>    3.7280    1.0000 </r>
       <r>    3.7358    1.0000 </r>
       <r>    3.7567    1.0000 </r>
       <r>    3.7691    1.0000 </r>
       <r>    4.5799    1.0000 </r>
       <r>    4.6048    1.0000 </r>
       <r>    4.6270    1.0000 </r>
       <r>    4.6672    1.0000 </r>
       <r>    4.6834    1.0000 </r>
       <r>    4.7261    1.0000 </r>
       <r>    4.8176    1.0000 </r>
       <r>    4.8366    1.0000 </r>
       <r>    4.8385    1.0000 </r>
       <r>    4.8408    1.0000 </r>
       <r>    4.8530    1.0000 </r>
       <r>    4.8592    1.0000 </r>
       <r>    5.9894    1.0000 </r>
       <r>    6.0017    1.0000 </r>
       <r>    6.0280    1.0000 </r>
       <r>    6.0363    1.0000 </r>
       <r>    6.0532    1.0000 </r>
       <r>    6.0593    1.0000 </r>
       <r>    6.0694    1.0000 </r>
       <r>    6.0844    1.0000 </r>
       <r>    6.1117    1.0000 </r>
       <r>    6.1152    1.0000 </r>
       <r>    6.1684    1.0000 </r>
       <r>    6.1800    1.0000 </r>
       <r>    6.7089    1.0000 </r>
       <r>    6.7328    1.0000 </r>
       <r>    6.7483    1.0000 </r>
       <r>    6.7588    1.0000 </r>
       <r>    6.7881    1.0000 </r>
       <r>    6.7983    1.0000 </r>
       <r>    6.8074    1.0000 </r>
       <r>    6.8155    1.0000 </r>
       <r>    6.8267    1.0000 </r>
       <r>    6.8656    1.0000 </r>
       <r>    6.8781    1.0000 </r>
       <r>    6.9226    1.0000 </r>
       <r>    6.9401    1.0000 </r>
       <r>    6.9676    1.0000 </r>
       <r>    6.9780    1.0000 </r>
       <r>    6.9986    1.0000 </r>
       <r>    7.0083    1.0000 </r>
       <r>    7.0222    1.0000 </r>
       <r>    7.0243    1.0000 </r>
       <r>    7.0695    1.0000 </r>
       <r>    8.0129    0.9579 </r>
       <r>    8.0203    0.9440 </r>
       <r>    8.0413    0.8974 </r>
       <r>    9.3252   -0.0000 </r>
       <r>    9.3745   -0.0000 </r>
       <r>    9.3812   -0.0000 </r>
       <r>   11.9546   -0.0000 </r>
       <r>   11.9868   -0.0000 </r>
       <r>   11.9932   -0.0000 </r>
       <r>   12.0188   -0.0000 </r>
       <r>   12.0584   -0.0000 </r>
       <r>   12.0700   -0.0000 </r>
       <r>   12.2442   -0.0000 </r>
       <r>   12.2811   -0.0000 </r>
       <r>   12.3238   -0.0000 </r>
       <r>   13.0698   -0.0000 </r>
       <r>   13.1149   -0.0000 </r>
       <r>   13.1663   -0.0000 </r>
       <r>   13.1820   -0.0000 </r>
       <r>   13.2084   -0.0000 </r>
       <r>   13.2215   -0.0000 </r>
       <r>   13.3193   -0.0000 </r>
       <r>   13.3216   -0.0000 </r>
       <r>   13.3336   -0.0000 </r>
       <r>   13.3442   -0.0000 </r>
       <r>   13.4179   -0.0000 </r>
       <r>   13.4374   -0.0000 </r>
       <r>   13.4521   -0.0000 </r>
       <r>   13.4645   -0.0000 </r>
       <r>   13.4754   -0.0000 </r>
       <r>   13.4991   -0.0000 </r>
       <r>   13.5061   -0.0000 </r>
       <r>   13.5144   -0.0000 </r>
       <r>   13.5427   -0.0000 </r>
       <r>   13.5752   -0.0000 </r>
       <r>   13.5848   -0.0000 </r>
       <r>   13.6103   -0.0000 </r>
       <r>   14.0931    0.0000 </r>
       <r>   14.2205    0.0000 </r>
       <r>   14.2703    0.0000 </r>
       <r>   14.2993    0.0000 </r>
       <r>   14.3135    0.0000 </r>
       <r>   14.3289    0.0000 </r>
      </set>
      <set comment="kpoint 2">
       <r>   -7.1632    1.0000 </r>
       <r>   -6.6282    1.0000 </r>
       <r>   -5.6572    1.0000 </r>
       <r>   -5.5967    1.0000 </r>
       <r>   -5.5868    1.0000 </r>
       <r>   -5.5367    1.0000 </r>
       <r>   -5.1684    1.0000 </r>
       <r>   -5.1104    1.0000 </r>
       <r>   -5.0957    1.0000 </r>
       <r>   -5.0508    1.0000 </r>
       <r>   -4.5915    1.0000 </r>
       <r>   -4.2587    1.0000 </r>
       <r>   -4.2450    1.0000 </r>
       <r>   -4.2196    1.0000 </r>
       <r>   -4.2091    1.0000 </r>
       <r>   -3.9878    1.0000 </r>
       <r>   -3.9814    1.0000 </r>
       <r>   -3.9660    1.0000 </r>
       <r>   -3.9201    1.0000 </r>
       <r>   -3.4601    1.0000 </r>
       <r>   -3.3942    1.0000 </r>
       <r>   -3.3746    1.0000 </r>
       <r>   -3.3348    1.0000 </r>
       <r>   -3.2164    1.0000 </r>
       <r>   -2.5749    1.0000 </r>
       <r>   -2.5236    1.0000 </r>
       <r>   -2.5086    1.0000 </r>
       <r>   -2.4815    1.0000 </r>
       <r>   -2.3098    1.0000 </r>
       <r>   -2.2675    1.0000 </r>
       <r>   -2.1976    1.0000 </r>
       <r>   -2.1377    1.0000 </r>
       <r>   -0.0574    1.0000 </r>
       <r>   -0.0255    1.0000 </r>
       <r>   -0.0173    1.0000 </r>
       <r>   -0.0082    1.0000 </r>
       <r>    0.3508    1.0000 </r>
       <r>    0.3873    1.0000 </r>
       <r>    0.7076    1.0000 </r>
       <r>    0.7431    1.0000 </r>
       <r>    0.9865    1.0000 </r>
       <r>    1.0197    1.0000 </r>
       <r>    1.0511    1.0000 </r>
       <r>    1.0648    1.0000 </r>
       <r>    1.0994    1.0000 </r>
       <r>    1.1200    1.0000 </r>
       <r>    1.1264    1.0000 </r>
       <r>    1.1455    1.0000 </r>
       <r>    1.2412    1.0000 </r>
       <r>    1.3777    1.0000 </r>
       <r>    1.4000    1.0000 </r>
       <r>    1.4254    1.0000 </r>
       <r>    1.4542    1.0000 </r>
       <r>    2.6666    1.0000 </r>
       <r>    2.7065    1.0000 </r>
       <r>    2.7149    1.0000 </r>
       <r>    2.7425    1.0000 </r>
       <r>    2.9044    1.0000 </r>
       <r>    2.9264    1.0000 </r>
       <r>    2.9615    1.0000 </r>
       <r>    2.9774    1.0000 </r>
       <r>    2.9973    1.0000 </r>
       <r>    3.0099    1.0000 </r>
       <r>    3.0250    1.0000 </r>
       <r>    3.0381    1.0000 </r>
       <r>    3.0661    1.0000 </r>
       <r>    3.5190    1.0000 </r>
       <r>    3.5270    1.0000 </r>
       <r>    3.6446    1.0000 </r>
       <r>    3.6507    1.0000 </r>
       <r>    3.9915    1.0000 </r>
       <r>    4.0206    1.0000 </r>
       <r>    4.0386    1.0000 </r>
       <r>    4.0730    1.0000 </r>
       <r>    4.3385    1.0000 </r>
       <r>    4.3623    1.0000 </r>
       <r>    4.3643    1.0000 </r>
       <r>    4.3864    1.0000 </r>
       <r>    4.4021    1.0000 </r>
       <r>    4.4438    1.0000 </r>
       <r>    4.4649    1.0000 </r>
       <r>    4.4899    1.0000 </r>
       <r>    4.6125    1.0000 </r>
       <r>    4.6467    1.0000 </r>
       <r>    4.6556    1.0000 </r>
       <r>    4.6665    1.0000 </r>
       <r>    4.8058    1.0000 </r>
       <r>    4.8279    1.0000 </r>
       <r>    4.8368    1.0000 </r>
       <r>    4.8561    1.0000 </r>
       <r>    4.9800    1.0000 </r>
       <r>    4.9890    1.0000 </r>
       <r>    5.3991    1.0000 </r>
       <r>    5.4061    1.0000 </r>
       <r>    5.5766    1.0000 </r>
       <r>    5.6124    1.0000 </r>
       <r>    5.6261    1.0000 </r>
       <r>    5.6448    1.0000 </r>
       <r>    5.8487    1.0000 </r>
       <r>    5.8782    1.0000 </r>
       <r>    5.9005    1.0000 </r>
       <r>    5.9352    1.0000 </r>
       <r>    6.1750    1.0000 </r>
       <r>    6.2537    1.0000 </r>
       <r>    6.2761    1.0000 </r>
       <r>    6.2882    1.0000 </r>
       <r>    6.3059    1.0000 </r>
       <r>    6.4389    1.0000 </r>
       <r>    6.4703    1.0000 </r>
       <r>    6.5164    1.0000 </r>
       <r>    6.5348    1.0000 </r>
       <r>    6.7793    1.0000 </r>
       <r>    6.8010    1.0000 </r>
       <r>    6.8157    1.0000 </r>
       <r>    6.8321    1.0000 </r>
       <r>    6.8369    1.0000 </r>
       <r>    6.8897    1.0000 </r>
       <r>    6.9017    1.0000 </r>
       <r>    6.9143    1.0000 </r>
       <r>    6.9333    1.0000 </r>
       <r>    6.9523    1.0000 </r>
       <r>    6.9698    1.0000 </r>
       <r>    6.9883    1.0000 </r>
       <r>    7.0221    1.0000 </r>
       <r>    7.0473    1.0000 </r>
       <r>    7.4778    1.0000 </r>
       <r>    7.6824    1.0022 </r>
       <r>    7.6899    1.0026 </r>
       <r>    9.6812   -0.0000 </r>
       <r>   10.1879   -0.0000 </r>
       <r>   10.2161   -0.0000 </r>
       <r>   10.6256   -0.0000 </r>
       <r>   11.9555   -0.0000 </r>
       <r>   11.9806   -0.0000 </r>
       <r>   12.4889   -0.0000 </r>
       <r>   12.6231   -0.0000 </r>
       <r>   12.6347   -0.0000 </r>
       <r>   12.6700   -0.0000 </r>
       <r>   12.6805   -0.0000 </r>
       <r>   12.9216   -0.0000 </r>
       <r>   12.9700   -0.0000 </r>
       <r>   12.9850   -0.0000 </r>
       <r>   13.0072   -0.0000 </r>
       <r>   13.0313   -0.0000 </r>
       <r>   13.0522   -0.0000 </r>
       <r>   13.0718   -0.0000 </r>
       <r>   13.1111   -0.0000 </r>
       <r>   13.1242   -0.0000 </r>
       <r>   13.1650   -0.0000 </r>
       <r>   13.1848   -0.0000 </r>
       <r>   13.4912   -0.0000 </r>
       <r>   13.6089   -0.0000 </r>
       <r>   13.6223    0.0000 </r>
       <r>   13.6539    0.0000 </r>
       <r>   13.6627    0.0000 </r>
       <r>   13.6759    0.0000 </r>
       <r>   13.6879    0.0000 </r>
       <r>   13.7102    0.0000 </r>
       <r>   13.7259    0.0000 </r>
       <r>   13.9455    0.0000 </r>
       <r>   13.9660    0.0000 </r>
       <r>   13.9829    0.0000 </r>
       <r>   14.0098    0.0000 </r>
       <r>   14.4746    0.0000 </r>
       <r>   14.8116    0.0000 </r>
       <r>   14.8356    0.0000 </r>
       <r>   14.8569    0.0000 </r>
       <r>   14.8838    0.0000 </r>
      </set>
      <set comment="kpoint 3">
       <r>   -7.1627    1.0000 </r>
       <r>   -6.6298    1.0000 </r>
       <r>   -5.6477    1.0000 </r>
       <r>   -5.6118    1.0000 </r>
       <r>   -5.5802    1.0000 </r>
       <r>   -5.5347    1.0000 </r>
       <r>   -5.1600    1.0000 </r>
       <r>   -5.1271    1.0000 </r>
       <r>   -5.0849    1.0000 </r>
       <r>   -5.0495    1.0000 </r>
       <r>   -4.5993    1.0000 </r>
       <r>   -4.2642    1.0000 </r>
       <r>   -4.2444    1.0000 </r>
       <r>   -4.2274    1.0000 </r>
       <r>   -4.2044    1.0000 </r>
       <r>   -3.9889    1.0000 </r>
       <r>   -3.9799    1.0000 </r>
       <r>   -3.9509    1.0000 </r>
       <r>   -3.9277    1.0000 </r>
       <r>   -3.4472    1.0000 </r>
       <r>   -3.4136    1.0000 </r>
       <r>   -3.3756    1.0000 </r>
       <r>   -3.3211    1.0000 </r>
       <r>   -3.2179    1.0000 </r>
       <r>   -2.5818    1.0000 </r>
       <r>   -2.5449    1.0000 </r>
       <r>   -2.5075    1.0000 </r>
       <r>   -2.4493    1.0000 </r>
       <r>   -2.2956    1.0000 </r>
       <r>   -2.2795    1.0000 </r>
       <r>   -2.1831    1.0000 </r>
       <r>   -2.1616    1.0000 </r>
       <r>   -0.0623    1.0000 </r>
       <r>   -0.0297    1.0000 </r>
       <r>   -0.0123    1.0000 </r>
       <r>   -0.0082    1.0000 </r>
       <r>    0.3597    1.0000 </r>
       <r>    0.3741    1.0000 </r>
       <r>    0.7196    1.0000 </r>
       <r>    0.7363    1.0000 </r>
       <r>    0.9940    1.0000 </r>
       <r>    1.0161    1.0000 </r>
       <r>    1.0379    1.0000 </r>
       <r>    1.0647    1.0000 </r>
       <r>    1.1025    1.0000 </r>
       <r>    1.1098    1.0000 </r>
       <r>    1.1340    1.0000 </r>
       <r>    1.1604    1.0000 </r>
       <r>    1.2548    1.0000 </r>
       <r>    1.3814    1.0000 </r>
       <r>    1.3975    1.0000 </r>
       <r>    1.4120    1.0000 </r>
       <r>    1.4553    1.0000 </r>
       <r>    2.6747    1.0000 </r>
       <r>    2.7010    1.0000 </r>
       <r>    2.7245    1.0000 </r>
       <r>    2.7263    1.0000 </r>
       <r>    2.8913    1.0000 </r>
       <r>    2.9263    1.0000 </r>
       <r>    2.9549    1.0000 </r>
       <r>    2.9734    1.0000 </r>
       <r>    2.9818    1.0000 </r>
       <r>    3.0080    1.0000 </r>
       <r>    3.0197    1.0000 </r>
       <r>    3.0537    1.0000 </r>
       <r>    3.0933    1.0000 </r>
       <r>    3.5222    1.0000 </r>
       <r>    3.5274    1.0000 </r>
       <r>    3.6460    1.0000 </r>
       <r>    3.6522    1.0000 </r>
       <r>    3.9741    1.0000 </r>
       <r>    4.0085    1.0000 </r>
       <r>    4.0284    1.0000 </r>
       <r>    4.1024    1.0000 </r>
       <r>    4.3432    1.0000 </r>
       <r>    4.3548    1.0000 </r>
       <r>    4.3675    1.0000 </r>
       <r>    4.3828    1.0000 </r>
       <r>    4.4195    1.0000 </r>
       <r>    4.4465    1.0000 </r>
       <r>    4.4643    1.0000 </r>
       <r>    4.4708    1.0000 </r>
       <r>    4.6199    1.0000 </r>
       <r>    4.6460    1.0000 </r>
       <r>    4.6681    1.0000 </r>
       <r>    4.6709    1.0000 </r>
       <r>    4.7875    1.0000 </r>
       <r>    4.8143    1.0000 </r>
       <r>    4.8421    1.0000 </r>
       <r>    4.8587    1.0000 </r>
       <r>    4.9864    1.0000 </r>
       <r>    4.9939    1.0000 </r>
       <r>    5.3883    1.0000 </r>
       <r>    5.4090    1.0000 </r>
       <r>    5.5764    1.0000 </r>
       <r>    5.6206    1.0000 </r>
       <r>    5.6283    1.0000 </r>
       <r>    5.6422    1.0000 </r>
       <r>    5.8541    1.0000 </r>
       <r>    5.8826    1.0000 </r>
       <r>    5.9004    1.0000 </r>
       <r>    5.9281    1.0000 </r>
       <r>    6.1871    1.0000 </r>
       <r>    6.2405    1.0000 </r>
       <r>    6.2763    1.0000 </r>
       <r>    6.2881    1.0000 </r>
       <r>    6.3138    1.0000 </r>
       <r>    6.4443    1.0000 </r>
       <r>    6.4775    1.0000 </r>
       <r>    6.4835    1.0000 </r>
       <r>    6.5425    1.0000 </r>
       <r>    6.7718    1.0000 </r>
       <r>    6.7877    1.0000 </r>
       <r>    6.8239    1.0000 </r>
       <r>    6.8310    1.0000 </r>
       <r>    6.8523    1.0000 </r>
       <r>    6.8663    1.0000 </r>
       <r>    6.9062    1.0000 </r>
       <r>    6.9114    1.0000 </r>
       <r>    6.9307    1.0000 </r>
       <r>    6.9544    1.0000 </r>
       <r>    6.9733    1.0000 </r>
       <r>    6.9965    1.0000 </r>
       <r>    7.0238    1.0000 </r>
       <r>    7.0542    1.0000 </r>
       <r>    7.4758    1.0000 </r>
       <r>    7.6782    1.0021 </r>
       <r>    7.6974    1.0030 </r>
       <r>    9.6813   -0.0000 </r>
       <r>   10.1842   -0.0000 </r>
       <r>   10.2196   -0.0000 </r>
       <r>   10.6273   -0.0000 </r>
       <r>   11.9486   -0.0000 </r>
       <r>   11.9820   -0.0000 </r>
       <r>   12.4851   -0.0000 </r>
       <r>   12.6070   -0.0000 </r>
       <r>   12.6349   -0.0000 </r>
       <r>   12.6706   -0.0000 </r>
       <r>   12.6949   -0.0000 </r>
       <r>   12.9413   -0.0000 </r>
       <r>   12.9746   -0.0000 </r>
       <r>   12.9829   -0.0000 </r>
       <r>   13.0050   -0.0000 </r>
       <r>   13.0458   -0.0000 </r>
       <r>   13.0639   -0.0000 </r>
       <r>   13.0816   -0.0000 </r>
       <r>   13.0936   -0.0000 </r>
       <r>   13.1034   -0.0000 </r>
       <r>   13.1461   -0.0000 </r>
       <r>   13.1936   -0.0000 </r>
       <r>   13.4841   -0.0000 </r>
       <r>   13.6177    0.0000 </r>
       <r>   13.6360    0.0000 </r>
       <r>   13.6521    0.0000 </r>
       <r>   13.6641    0.0000 </r>
       <r>   13.6669    0.0000 </r>
       <r>   13.6921    0.0000 </r>
       <r>   13.7031    0.0000 </r>
       <r>   13.7273    0.0000 </r>
       <r>   13.9111    0.0000 </r>
       <r>   13.9508    0.0000 </r>
       <r>   13.9961    0.0000 </r>
       <r>   14.0421    0.0000 </r>
       <r>   14.4739    0.0000 </r>
       <r>   14.8048    0.0000 </r>
       <r>   14.8315    0.0000 </r>
       <r>   14.8693    0.0000 </r>
       <r>   14.9220    0.0000 </r>
      </set>
      <set comment="kpoint 4">
       <r>   -7.1647    1.0000 </r>
       <r>   -6.6240    1.0000 </r>
       <r>   -5.6478    1.0000 </r>
       <r>   -5.6047    1.0000 </r>
       <r>   -5.5848    1.0000 </r>
       <r>   -5.5545    1.0000 </r>
       <r>   -5.1509    1.0000 </r>
       <r>   -5.1153    1.0000 </r>
       <r>   -5.0851    1.0000 </r>
       <r>   -5.0554    1.0000 </r>
       <r>   -4.5931    1.0000 </r>
       <r>   -4.2925    1.0000 </r>
       <r>   -4.2446    1.0000 </r>
       <r>   -4.2377    1.0000 </r>
       <r>   -4.2032    1.0000 </r>
       <r>   -3.9901    1.0000 </r>
       <r>   -3.9601    1.0000 </r>
       <r>   -3.9285    1.0000 </r>
       <r>   -3.9209    1.0000 </r>
       <r>   -3.4484    1.0000 </r>
       <r>   -3.4016    1.0000 </r>
       <r>   -3.3731    1.0000 </r>
       <r>   -3.3560    1.0000 </r>
       <r>   -3.2153    1.0000 </r>
       <r>   -2.5579    1.0000 </r>
       <r>   -2.5226    1.0000 </r>
       <r>   -2.5016    1.0000 </r>
       <r>   -2.4870    1.0000 </r>
       <r>   -2.3606    1.0000 </r>
       <r>   -2.2861    1.0000 </r>
       <r>   -2.1511    1.0000 </r>
       <r>   -2.1347    1.0000 </r>
       <r>   -0.0685    1.0000 </r>
       <r>   -0.0276    1.0000 </r>
       <r>   -0.0113    1.0000 </r>
       <r>   -0.0054    1.0000 </r>
       <r>    0.3645    1.0000 </r>
       <r>    0.3673    1.0000 </r>
       <r>    0.7258    1.0000 </r>
       <r>    0.7319    1.0000 </r>
       <r>    1.0071    1.0000 </r>
       <r>    1.0276    1.0000 </r>
       <r>    1.0496    1.0000 </r>
       <r>    1.0688    1.0000 </r>
       <r>    1.0898    1.0000 </r>
       <r>    1.1159    1.0000 </r>
       <r>    1.1272    1.0000 </r>
       <r>    1.1398    1.0000 </r>
       <r>    1.2374    1.0000 </r>
       <r>    1.3850    1.0000 </r>
       <r>    1.4070    1.0000 </r>
       <r>    1.4277    1.0000 </r>
       <r>    1.4381    1.0000 </r>
       <r>    2.6687    1.0000 </r>
       <r>    2.6922    1.0000 </r>
       <r>    2.7163    1.0000 </r>
       <r>    2.7233    1.0000 </r>
       <r>    2.9186    1.0000 </r>
       <r>    2.9461    1.0000 </r>
       <r>    2.9624    1.0000 </r>
       <r>    2.9752    1.0000 </r>
       <r>    2.9934    1.0000 </r>
       <r>    3.0114    1.0000 </r>
       <r>    3.0298    1.0000 </r>
       <r>    3.0338    1.0000 </r>
       <r>    3.0528    1.0000 </r>
       <r>    3.5214    1.0000 </r>
       <r>    3.5251    1.0000 </r>
       <r>    3.6411    1.0000 </r>
       <r>    3.6465    1.0000 </r>
       <r>    3.9876    1.0000 </r>
       <r>    4.0317    1.0000 </r>
       <r>    4.0444    1.0000 </r>
       <r>    4.0658    1.0000 </r>
       <r>    4.3464    1.0000 </r>
       <r>    4.3576    1.0000 </r>
       <r>    4.3815    1.0000 </r>
       <r>    4.3935    1.0000 </r>
       <r>    4.4204    1.0000 </r>
       <r>    4.4335    1.0000 </r>
       <r>    4.4654    1.0000 </r>
       <r>    4.4737    1.0000 </r>
       <r>    4.6220    1.0000 </r>
       <r>    4.6406    1.0000 </r>
       <r>    4.6509    1.0000 </r>
       <r>    4.6739    1.0000 </r>
       <r>    4.7741    1.0000 </r>
       <r>    4.8246    1.0000 </r>
       <r>    4.8407    1.0000 </r>
       <r>    4.8632    1.0000 </r>
       <r>    4.9792    1.0000 </r>
       <r>    4.9886    1.0000 </r>
       <r>    5.4006    1.0000 </r>
       <r>    5.4117    1.0000 </r>
       <r>    5.5838    1.0000 </r>
       <r>    5.6142    1.0000 </r>
       <r>    5.6270    1.0000 </r>
       <r>    5.6397    1.0000 </r>
       <r>    5.8669    1.0000 </r>
       <r>    5.8830    1.0000 </r>
       <r>    5.9021    1.0000 </r>
       <r>    5.9235    1.0000 </r>
       <r>    6.1715    1.0000 </r>
       <r>    6.2362    1.0000 </r>
       <r>    6.2681    1.0000 </r>
       <r>    6.2950    1.0000 </r>
       <r>    6.3134    1.0000 </r>
       <r>    6.4473    1.0000 </r>
       <r>    6.4769    1.0000 </r>
       <r>    6.5072    1.0000 </r>
       <r>    6.5499    1.0000 </r>
       <r>    6.7341    1.0000 </r>
       <r>    6.7664    1.0000 </r>
       <r>    6.7982    1.0000 </r>
       <r>    6.8414    1.0000 </r>
       <r>    6.8639    1.0000 </r>
       <r>    6.8842    1.0000 </r>
       <r>    6.9167    1.0000 </r>
       <r>    6.9229    1.0000 </r>
       <r>    6.9422    1.0000 </r>
       <r>    6.9569    1.0000 </r>
       <r>    6.9805    1.0000 </r>
       <r>    6.9988    1.0000 </r>
       <r>    7.0118    1.0000 </r>
       <r>    7.0373    1.0000 </r>
       <r>    7.4806    1.0000 </r>
       <r>    7.6797    1.0021 </r>
       <r>    7.6952    1.0029 </r>
       <r>    9.6778   -0.0000 </r>
       <r>   10.1879   -0.0000 </r>
       <r>   10.2159   -0.0000 </r>
       <r>   10.6277   -0.0000 </r>
       <r>   11.9695   -0.0000 </r>
       <r>   11.9792   -0.0000 </r>
       <r>   12.4784   -0.0000 </r>
       <r>   12.6071   -0.0000 </r>
       <r>   12.6409   -0.0000 </r>
       <r>   12.6569   -0.0000 </r>
       <r>   12.6879   -0.0000 </r>
       <r>   12.9191   -0.0000 </r>
       <r>   12.9488   -0.0000 </r>
       <r>   12.9767   -0.0000 </r>
       <r>   13.0045   -0.0000 </r>
       <r>   13.0353   -0.0000 </r>
       <r>   13.0683   -0.0000 </r>
       <r>   13.0857   -0.0000 </r>
       <r>   13.1051   -0.0000 </r>
       <r>   13.1210   -0.0000 </r>
       <r>   13.1736   -0.0000 </r>
       <r>   13.2135   -0.0000 </r>
       <r>   13.4872   -0.0000 </r>
       <r>   13.5910   -0.0000 </r>
       <r>   13.6191    0.0000 </r>
       <r>   13.6266    0.0000 </r>
       <r>   13.6566    0.0000 </r>
       <r>   13.6866    0.0000 </r>
       <r>   13.7093    0.0000 </r>
       <r>   13.7205    0.0000 </r>
       <r>   13.7319    0.0000 </r>
       <r>   13.9341    0.0000 </r>
       <r>   13.9741    0.0000 </r>
       <r>   13.9885    0.0000 </r>
       <r>   14.0154    0.0000 </r>
       <r>   14.4717    0.0000 </r>
       <r>   14.7898    0.0000 </r>
       <r>   14.8238    0.0000 </r>
       <r>   14.8566    0.0000 </r>
       <r>   14.9192    0.0000 </r>
      </set>
      <set comment="kpoint 5">
       <r>   -6.9855    1.0000 </r>
       <r>   -6.4798    1.0000 </r>
       <r>   -6.4310    1.0000 </r>
       <r>   -5.9409    1.0000 </r>
       <r>   -5.4394    1.0000 </r>
       <r>   -5.4206    1.0000 </r>
       <r>   -4.9999    1.0000 </r>
       <r>   -4.9717    1.0000 </r>
       <r>   -4.9360    1.0000 </r>
       <r>   -4.9292    1.0000 </r>
       <r>   -4.5627    1.0000 </r>
       <r>   -4.5488    1.0000 </r>
       <r>   -4.4400    1.0000 </r>
       <r>   -4.4093    1.0000 </r>
       <r>   -4.0437    1.0000 </r>
       <r>   -4.0092    1.0000 </r>
       <r>   -3.5306    1.0000 </r>
       <r>   -3.5102    1.0000 </r>
       <r>   -3.4184    1.0000 </r>
       <r>   -3.4014    1.0000 </r>
       <r>   -3.3662    1.0000 </r>
       <r>   -3.3562    1.0000 </r>
       <r>   -3.1473    1.0000 </r>
       <r>   -3.0921    1.0000 </r>
       <r>   -2.8690    1.0000 </r>
       <r>   -2.8301    1.0000 </r>
       <r>   -2.7526    1.0000 </r>
       <r>   -2.6959    1.0000 </r>
       <r>   -2.6771    1.0000 </r>
       <r>   -2.3408    1.0000 </r>
       <r>   -2.2878    1.0000 </r>
       <r>   -2.2619    1.0000 </r>
       <r>   -0.1786    1.0000 </r>
       <r>   -0.1551    1.0000 </r>
       <r>    0.4558    1.0000 </r>
       <r>    0.5184    1.0000 </r>
       <r>    0.5495    1.0000 </r>
       <r>    0.5632    1.0000 </r>
       <r>    0.5823    1.0000 </r>
       <r>    0.6381    1.0000 </r>
       <r>    0.6747    1.0000 </r>
       <r>    0.7615    1.0000 </r>
       <r>    0.8140    1.0000 </r>
       <r>    0.8340    1.0000 </r>
       <r>    0.8525    1.0000 </r>
       <r>    0.9971    1.0000 </r>
       <r>    1.2026    1.0000 </r>
       <r>    1.2322    1.0000 </r>
       <r>    1.2587    1.0000 </r>
       <r>    1.2755    1.0000 </r>
       <r>    1.9960    1.0000 </r>
       <r>    2.0318    1.0000 </r>
       <r>    2.0493    1.0000 </r>
       <r>    2.0789    1.0000 </r>
       <r>    2.0933    1.0000 </r>
       <r>    2.1385    1.0000 </r>
       <r>    2.4138    1.0000 </r>
       <r>    2.5714    1.0000 </r>
       <r>    2.6003    1.0000 </r>
       <r>    2.6826    1.0000 </r>
       <r>    2.6976    1.0000 </r>
       <r>    3.1966    1.0000 </r>
       <r>    3.2389    1.0000 </r>
       <r>    3.2906    1.0000 </r>
       <r>    3.3046    1.0000 </r>
       <r>    3.3327    1.0000 </r>
       <r>    3.4987    1.0000 </r>
       <r>    3.5407    1.0000 </r>
       <r>    3.9015    1.0000 </r>
       <r>    3.9240    1.0000 </r>
       <r>    4.0253    1.0000 </r>
       <r>    4.0372    1.0000 </r>
       <r>    4.0612    1.0000 </r>
       <r>    4.0838    1.0000 </r>
       <r>    4.1154    1.0000 </r>
       <r>    4.3087    1.0000 </r>
       <r>    4.3298    1.0000 </r>
       <r>    4.4786    1.0000 </r>
       <r>    4.4874    1.0000 </r>
       <r>    4.6599    1.0000 </r>
       <r>    4.6784    1.0000 </r>
       <r>    4.8737    1.0000 </r>
       <r>    4.8814    1.0000 </r>
       <r>    4.9021    1.0000 </r>
       <r>    4.9207    1.0000 </r>
       <r>    4.9440    1.0000 </r>
       <r>    4.9516    1.0000 </r>
       <r>    5.1009    1.0000 </r>
       <r>    5.2801    1.0000 </r>
       <r>    5.3133    1.0000 </r>
       <r>    5.3897    1.0000 </r>
       <r>    5.4014    1.0000 </r>
       <r>    5.4343    1.0000 </r>
       <r>    5.4607    1.0000 </r>
       <r>    5.5324    1.0000 </r>
       <r>    5.5710    1.0000 </r>
       <r>    5.5912    1.0000 </r>
       <r>    5.6024    1.0000 </r>
       <r>    5.6288    1.0000 </r>
       <r>    5.6593    1.0000 </r>
       <r>    5.6813    1.0000 </r>
       <r>    5.8385    1.0000 </r>
       <r>    5.9932    1.0000 </r>
       <r>    6.0092    1.0000 </r>
       <r>    6.0352    1.0000 </r>
       <r>    6.0531    1.0000 </r>
       <r>    6.1876    1.0000 </r>
       <r>    6.2096    1.0000 </r>
       <r>    6.2626    1.0000 </r>
       <r>    6.2913    1.0000 </r>
       <r>    6.3897    1.0000 </r>
       <r>    6.4297    1.0000 </r>
       <r>    6.4794    1.0000 </r>
       <r>    6.5215    1.0000 </r>
       <r>    6.5499    1.0000 </r>
       <r>    6.6619    1.0000 </r>
       <r>    6.6908    1.0000 </r>
       <r>    6.7116    1.0000 </r>
       <r>    6.7309    1.0000 </r>
       <r>    6.8459    1.0000 </r>
       <r>    6.8756    1.0000 </r>
       <r>    6.8884    1.0000 </r>
       <r>    6.9064    1.0000 </r>
       <r>    7.3200    1.0000 </r>
       <r>    7.4762    1.0000 </r>
       <r>    7.5066    1.0000 </r>
       <r>    7.6504    1.0011 </r>
       <r>    7.9807    1.0028 </r>
       <r>   10.4190   -0.0000 </r>
       <r>   10.4809   -0.0000 </r>
       <r>   10.5066   -0.0000 </r>
       <r>   11.3318   -0.0000 </r>
       <r>   11.3437   -0.0000 </r>
       <r>   11.6347   -0.0000 </r>
       <r>   11.6687   -0.0000 </r>
       <r>   11.8091   -0.0000 </r>
       <r>   12.1804   -0.0000 </r>
       <r>   12.2006   -0.0000 </r>
       <r>   12.8326   -0.0000 </r>
       <r>   12.8607   -0.0000 </r>
       <r>   12.8683   -0.0000 </r>
       <r>   12.9007   -0.0000 </r>
       <r>   13.0655   -0.0000 </r>
       <r>   13.0894   -0.0000 </r>
       <r>   13.1417   -0.0000 </r>
       <r>   13.1576   -0.0000 </r>
       <r>   13.1765   -0.0000 </r>
       <r>   13.2193   -0.0000 </r>
       <r>   13.2802   -0.0000 </r>
       <r>   13.2955   -0.0000 </r>
       <r>   13.5535   -0.0000 </r>
       <r>   13.5617   -0.0000 </r>
       <r>   13.5965   -0.0000 </r>
       <r>   13.6066   -0.0000 </r>
       <r>   13.7237    0.0000 </r>
       <r>   13.7368    0.0000 </r>
       <r>   13.7648    0.0000 </r>
       <r>   13.7877    0.0000 </r>
       <r>   13.8808    0.0000 </r>
       <r>   13.9199    0.0000 </r>
       <r>   13.9941    0.0000 </r>
       <r>   14.0563    0.0000 </r>
       <r>   14.1252    0.0000 </r>
       <r>   14.6597    0.0000 </r>
       <r>   14.7412    0.0000 </r>
       <r>   14.7551    0.0000 </r>
       <r>   14.9214    0.0000 </r>
       <r>   15.0332    0.0000 </r>
      </set>
      <set comment="kpoint 6">
       <r>   -6.9872    1.0000 </r>
       <r>   -6.4840    1.0000 </r>
       <r>   -6.4232    1.0000 </r>
       <r>   -5.9335    1.0000 </r>
       <r>   -5.4573    1.0000 </r>
       <r>   -5.4169    1.0000 </r>
       <r>   -5.0148    1.0000 </r>
       <r>   -4.9710    1.0000 </r>
       <r>   -4.9406    1.0000 </r>
       <r>   -4.9129    1.0000 </r>
       <r>   -4.5680    1.0000 </r>
       <r>   -4.5423    1.0000 </r>
       <r>   -4.4435    1.0000 </r>
       <r>   -4.4049    1.0000 </r>
       <r>   -4.0289    1.0000 </r>
       <r>   -4.0048    1.0000 </r>
       <r>   -3.5361    1.0000 </r>
       <r>   -3.5244    1.0000 </r>
       <r>   -3.4313    1.0000 </r>
       <r>   -3.4142    1.0000 </r>
       <r>   -3.3615    1.0000 </r>
       <r>   -3.3211    1.0000 </r>
       <r>   -3.1296    1.0000 </r>
       <r>   -3.1061    1.0000 </r>
       <r>   -2.8715    1.0000 </r>
       <r>   -2.8284    1.0000 </r>
       <r>   -2.7728    1.0000 </r>
       <r>   -2.6997    1.0000 </r>
       <r>   -2.6713    1.0000 </r>
       <r>   -2.3510    1.0000 </r>
       <r>   -2.3056    1.0000 </r>
       <r>   -2.2263    1.0000 </r>
       <r>   -0.1828    1.0000 </r>
       <r>   -0.1578    1.0000 </r>
       <r>    0.4694    1.0000 </r>
       <r>    0.4913    1.0000 </r>
       <r>    0.5428    1.0000 </r>
       <r>    0.5769    1.0000 </r>
       <r>    0.6026    1.0000 </r>
       <r>    0.6499    1.0000 </r>
       <r>    0.6667    1.0000 </r>
       <r>    0.7710    1.0000 </r>
       <r>    0.7985    1.0000 </r>
       <r>    0.8326    1.0000 </r>
       <r>    0.8593    1.0000 </r>
       <r>    0.9946    1.0000 </r>
       <r>    1.1874    1.0000 </r>
       <r>    1.2176    1.0000 </r>
       <r>    1.2631    1.0000 </r>
       <r>    1.2989    1.0000 </r>
       <r>    2.0016    1.0000 </r>
       <r>    2.0106    1.0000 </r>
       <r>    2.0507    1.0000 </r>
       <r>    2.0686    1.0000 </r>
       <r>    2.1078    1.0000 </r>
       <r>    2.1383    1.0000 </r>
       <r>    2.4074    1.0000 </r>
       <r>    2.5832    1.0000 </r>
       <r>    2.5909    1.0000 </r>
       <r>    2.6580    1.0000 </r>
       <r>    2.7227    1.0000 </r>
       <r>    3.2086    1.0000 </r>
[...]
      </set>
     </set>
    </set>
   </array>
  </eigenvalues>
  <separator name="orbital magnetization" >
   <v name="MAGDIPOLOUT">      0.00000000      0.00000000      0.00000000</v>
  </separator>
  <dos>
   <i name="efermi">      8.15172280 </i>
   <total>
    <array>
     <dimension dim="1">gridpoints</dimension>
     <dimension dim="2">spin</dimension>
     <field>energy</field>
     <field>total</field>
     <field>integrated</field>
     <set>
      <set comment="spin 1">
       <r>    -9.3417     0.0000     0.0000 </r>
       <r>    -9.2523     0.0000     0.0000 </r>
       <r>    -9.1629     0.0000     0.0000 </r>
       <r>    -9.0735     0.0000     0.0000 </r>
       <r>    -8.9840    -0.0000    -0.0000 </r>
       <r>    -8.8946    -0.0000    -0.0000 </r>
       <r>    -8.8052    -0.0000    -0.0000 </r>
       <r>    -8.7158    -0.0000    -0.0000 </r>
       <r>    -8.6264    -0.0000    -0.0000 </r>
       <r>    -8.5370    -0.0000    -0.0000 </r>
       <r>    -8.4476    -0.0000    -0.0000 </r>
       <r>    -8.3582    -0.0000    -0.0000 </r>
       <r>    -8.2688    -0.0000    -0.0000 </r>
       <r>    -8.1793    -0.0000    -0.0000 </r>
       <r>    -8.0899    -0.0000    -0.0000 </r>
       <r>    -8.0005    -0.0000    -0.0000 </r>
       <r>    -7.9111    -0.0002    -0.0000 </r>
       <r>    -7.8217    -0.0014    -0.0001 </r>
       <r>    -7.7323    -0.0072    -0.0008 </r>
       <r>    -7.6429    -0.0231    -0.0029 </r>
       <r>    -7.5535    -0.0420    -0.0066 </r>
       <r>    -7.4641    -0.0200    -0.0084 </r>
       <r>    -7.3747     0.1473     0.0048 </r>
       <r>    -7.2852     0.6368     0.0617 </r>
       <r>    -7.1958     1.5698     0.2021 </r>
       <r>    -7.1064     2.8361     0.4556 </r>
       <r>    -7.0170     4.0590     0.8186 </r>
       <r>    -6.9276     4.5826     1.2283 </r>
       <r>    -6.8382     4.0674     1.5920 </r>
       <r>    -6.7488     3.0696     1.8664 </r>
       <r>    -6.6594     2.7057     2.1083 </r>
       <r>    -6.5700     4.1148     2.4763 </r>
       <r>    -6.4805     7.1972     3.1198 </r>
       <r>    -6.3911     9.9323     4.0078 </r>
       <r>    -6.3017    10.2185     4.9215 </r>
       <r>    -6.2123     7.6163     5.6024 </r>
       <r>    -6.1229     3.7960     5.9418 </r>
       <r>    -6.0335     1.9400     6.1153 </r>
       <r>    -5.9441     3.5948     6.4367 </r>
       <r>    -5.8547     7.1797     7.0786 </r>
       <r>    -5.7653    10.3337     8.0026 </r>
       <r>    -5.6758    11.7208     9.0506 </r>
       <r>    -5.5864    11.6460    10.0918 </r>
       <r>    -5.4970    11.2224    11.0952 </r>
       <r>    -5.4076    10.1299    12.0010 </r>
       <r>    -5.3182     7.6948    12.6890 </r>
       <r>    -5.2288     6.0188    13.2271 </r>
       <r>    -5.1394     8.2476    13.9645 </r>
       <r>    -5.0500    13.7123    15.1905 </r>
       <r>    -4.9606    17.0303    16.7132 </r>
       <r>    -4.8712    13.6507    17.9337 </r>
       <r>    -4.7817     6.3526    18.5017 </r>
       <r>    -4.6923     2.7558    18.7481 </r>
       <r>    -4.6029     6.0814    19.2919 </r>
       <r>    -4.5135    12.5577    20.4147 </r>
       <r>    -4.4241    17.6569    21.9934 </r>
       <r>    -4.3347    19.7107    23.7557 </r>
       <r>    -4.2453    17.9343    25.3593 </r>
       <r>    -4.1559    14.5421    26.6595 </r>
       <r>    -4.0665    16.1076    28.0997 </r>
       <r>    -3.9770    22.7034    30.1296 </r>
       <r>    -3.8876    24.2574    32.2985 </r>
       <r>    -3.7982    17.3511    33.8498 </r>
       <r>    -3.7088    10.8441    34.8194 </r>
       <r>    -3.6194    11.1082    35.8126 </r>
       <r>    -3.5300    16.2575    37.2662 </r>
       <r>    -3.4406    21.8576    39.2205 </r>
       <r>    -3.3512    23.2281    41.2973 </r>
       <r>    -3.2618    19.3543    43.0278 </r>
       <r>    -3.1723    15.9948    44.4579 </r>
       <r>    -3.0829    16.7929    45.9594 </r>
       <r>    -2.9935    19.4229    47.6960 </r>
       <r>    -2.9041    23.3908    49.7874 </r>
       <r>    -2.8147    27.9812    52.2892 </r>
       <r>    -2.7253    27.8247    54.7770 </r>
       <r>    -2.6359    20.9491    56.6501 </r>
       <r>    -2.5465    13.0682    57.8185 </r>
       <r>    -2.4571    10.0947    58.7211 </r>
       <r>    -2.3677    12.4585    59.8350 </r>
       <r>    -2.2782    16.0428    61.2694 </r>
       <r>    -2.1888    15.7404    62.6768 </r>
       <r>    -2.0994    10.5526    63.6203 </r>
       <r>    -2.0100     4.3627    64.0104 </r>
       <r>    -1.9206     0.6930    64.0723 </r>
       <r>    -1.8312    -0.3581    64.0403 </r>
       <r>    -1.7418    -0.3006    64.0135 </r>
       <r>    -1.6524    -0.1156    64.0031 </r>
       <r>    -1.5630    -0.0291    64.0005 </r>
       <r>    -1.4735    -0.0051    64.0001 </r>
       <r>    -1.3841    -0.0006    64.0000 </r>
       <r>    -1.2947    -0.0001    64.0000 </r>
       <r>    -1.2053    -0.0000    64.0000 </r>
       <r>    -1.1159    -0.0002    64.0000 </r>
       <r>    -1.0265    -0.0017    63.9998 </r>
       <r>    -0.9371    -0.0105    63.9989 </r>
       <r>    -0.8477    -0.0383    63.9955 </r>
       <r>    -0.7583    -0.0611    63.9900 </r>
       <r>    -0.6688     0.0648    63.9958 </r>
       <r>    -0.5794     0.4483    64.0359 </r>
       <r>    -0.4900     0.7426    64.1023 </r>
       <r>    -0.4006     0.7125    64.1660 </r>
       <r>    -0.3112     1.7039    64.3183 </r>
       <r>    -0.2218     5.3134    64.7934 </r>
       <r>    -0.1324     9.7981    65.6695 </r>
       <r>    -0.0430    11.1387    66.6654 </r>
       <r>     0.0464     8.4153    67.4178 </r>
       <r>     0.1358     5.7977    67.9362 </r>
       <r>     0.2253     7.7241    68.6268 </r>
       <r>     0.3147    13.3382    69.8194 </r>
       <r>     0.4041    18.9864    71.5170 </r>
       <r>     0.4935    22.8320    73.5584 </r>
       <r>     0.5829    24.4783    75.7470 </r>
       <r>     0.6723    25.4333    78.0210 </r>
       <r>     0.7617    28.6131    80.5793 </r>
       <r>     0.8511    32.2216    83.4603 </r>
       <r>     0.9405    31.2243    86.2521 </r>
       <r>     1.0300    28.1384    88.7679 </r>
       <r>     1.1194    30.3018    91.4772 </r>
       <r>     1.2088    36.9197    94.7783 </r>
       <r>     1.2982    38.9434    98.2602 </r>
       <r>     1.3876    30.6493   101.0006 </r>
       <r>     1.4770    16.3777   102.4649 </r>
       <r>     1.5664     4.6559   102.8812 </r>
       <r>     1.6558    -0.6727   102.8211 </r>
       <r>     1.7452    -1.1615   102.7172 </r>
       <r>     1.8346     1.4102   102.8433 </r>
       <r>     1.9241     8.1099   103.5684 </r>
       <r>     2.0135    18.8210   105.2512 </r>
       <r>     2.1029    26.5485   107.6249 </r>
       <r>     2.1923    23.9144   109.7631 </r>
       <r>     2.2817    14.1970   111.0325 </r>
       <r>     2.3711     6.5664   111.6196 </r>
       <r>     2.4605     5.3875   112.1013 </r>
       <r>     2.5499     9.8733   112.9841 </r>
       <r>     2.6393    16.0963   114.4233 </r>
       <r>     2.7288    17.8755   116.0215 </r>
       <r>     2.8182    14.2194   117.2929 </r>
       <r>     2.9076    12.3046   118.3930 </r>
       <r>     2.9970    15.9785   119.8217 </r>
       <r>     3.0864    21.1880   121.7161 </r>
       <r>     3.1758    26.3734   124.0742 </r>
       <r>     3.2652    32.3396   126.9657 </r>
       <r>     3.3546    34.0875   130.0135 </r>
       <r>     3.4440    29.6670   132.6660 </r>
       <r>     3.5335    25.7726   134.9704 </r>
       <r>     3.6229    23.9475   137.1115 </r>
       <r>     3.7123    19.3558   138.8421 </r>
       <r>     3.8017    13.1789   140.0205 </r>
       <r>     3.8911    12.9217   141.1758 </r>
       <r>     3.9805    20.3712   142.9972 </r>
       <r>     4.0699    25.8920   145.3122 </r>
       <r>     4.1593    22.1398   147.2918 </r>
       <r>     4.2487    17.4873   148.8553 </r>
       <r>     4.3381    22.2972   150.8489 </r>
       <r>     4.4276    31.7747   153.6899 </r>
       <r>     4.5170    36.6930   156.9707 </r>
       <r>     4.6064    36.2253   160.2096 </r>
       <r>     4.6958    33.7368   163.2260 </r>
       <r>     4.7852    33.4118   166.2134 </r>
       <r>     4.8746    36.2127   169.4512 </r>
       <r>     4.9640    36.4098   172.7066 </r>
       <r>     5.0534    32.1883   175.5846 </r>
       <r>     5.1428    29.4658   178.2192 </r>
       <r>     5.2323    30.3485   180.9327 </r>
       <r>     5.3217    30.9655   183.7013 </r>
       <r>     5.4111    30.6169   186.4388 </r>
       <r>     5.5005    33.9103   189.4707 </r>
       <r>     5.5899    40.9853   193.1353 </r>
       <r>     5.6793    43.4566   197.0207 </r>
       <r>     5.7687    38.4363   200.4574 </r>
       <r>     5.8581    34.1655   203.5121 </r>
       <r>     5.9475    33.7280   206.5278 </r>
       <r>     6.0370    31.5169   209.3457 </r>
       <r>     6.1264    27.9569   211.8454 </r>
       <r>     6.2158    29.3254   214.4674 </r>
       <r>     6.3052    33.9921   217.5066 </r>
       <r>     6.3946    35.8619   220.7131 </r>
       <r>     6.4840    34.1254   223.7642 </r>
       <r>     6.5734    29.8099   226.4296 </r>
       <r>     6.6628    26.0859   228.7619 </r>
       <r>     6.7522    28.5004   231.3102 </r>
       <r>     6.8416    36.8738   234.6071 </r>
       <r>     6.9311    42.7641   238.4306 </r>
       <r>     7.0205    37.6622   241.7980 </r>
       <r>     7.1099    24.0901   243.9519 </r>
       <r>     7.1993    13.2282   245.1347 </r>
       <r>     7.2887    11.0444   246.1222 </r>
       <r>     7.3781    14.6837   247.4351 </r>
       <r>     7.4675    19.2919   249.1600 </r>
       <r>     7.5569    21.4885   251.0813 </r>
       <r>     7.6463    19.7715   252.8491 </r>
       <r>     7.7358    14.5304   254.1482 </r>
       <r>     7.8252     8.1273   254.8749 </r>
       <r>     7.9146     4.3665   255.2653 </r>
       <r>     8.0040     3.8278   255.6075 </r>
       <r>     8.0934     3.2368   255.8970 </r>
       <r>     8.1828     1.4434   256.0260 </r>
       <r>     8.2722     0.0797   256.0331 </r>
       <r>     8.3616    -0.2245   256.0131 </r>
       <r>     8.4510    -0.1137   256.0029 </r>
       <r>     8.5405    -0.0279   256.0004 </r>
       <r>     8.6299    -0.0041   256.0000 </r>
       <r>     8.7193    -0.0005   256.0000 </r>
       <r>     8.8087    -0.0009   255.9999 </r>
       <r>     8.8981    -0.0061   255.9994 </r>
       <r>     8.9875    -0.0241   255.9972 </r>
       <r>     9.0769    -0.0440   255.9933 </r>
       <r>     9.1663     0.0307   255.9960 </r>
       <r>     9.2557     0.3295   256.0255 </r>
       <r>     9.3451     0.7037   256.0884 </r>
       <r>     9.4346     0.7851   256.1586 </r>
       <r>     9.5240     0.7573   256.2263 </r>
       <r>     9.6134     1.2015   256.3337 </r>
       <r>     9.7028     1.7459   256.4898 </r>
       <r>     9.7922     1.4308   256.6177 </r>
       <r>     9.8816     0.4425   256.6573 </r>
       <r>     9.9710    -0.1311   256.6456 </r>
       <r>    10.0604     0.4423   256.6851 </r>
       <r>    10.1498     1.9641   256.8608 </r>
       <r>    10.2393     3.4470   257.1690 </r>
       <r>    10.3287     5.0964   257.6246 </r>
       <r>    10.4181     8.1176   258.3504 </r>
       <r>    10.5075    11.0373   259.3373 </r>
       <r>    10.5969    11.6593   260.3797 </r>
       <r>    10.6863    10.6246   261.3297 </r>
       <r>    10.7757     8.2097   262.0637 </r>
       <r>    10.8651     4.2058   262.4398 </r>
       <r>    10.9545     0.6747   262.5001 </r>
       <r>    11.0439    -0.7696   262.4313 </r>
       <r>    11.1334    -0.3787   262.3974 </r>
       <r>    11.2228     1.8638   262.5641 </r>
       <r>    11.3122     5.3216   263.0399 </r>
       <r>    11.4016     7.8337   263.7403 </r>
       <r>    11.4910     9.3798   264.5790 </r>
       <r>    11.5804    11.4285   265.6008 </r>
       <r>    11.6698    12.8486   266.7496 </r>
       <r>    11.7592    13.8197   267.9852 </r>
       <r>    11.8486    17.1302   269.5168 </r>
       <r>    11.9381    21.2389   271.4158 </r>
       <r>    12.0275    21.8506   273.3695 </r>
       <r>    12.1169    18.8489   275.0548 </r>
       <r>    12.2063    14.0305   276.3093 </r>
       <r>    12.2957     7.9329   277.0186 </r>
       <r>    12.3851     3.0648   277.2926 </r>
       <r>    12.4745     3.8990   277.6412 </r>
       <r>    12.5639    11.2944   278.6510 </r>
       <r>    12.6533    20.1181   280.4498 </r>
       <r>    12.7428    25.4259   282.7232 </r>
       <r>    12.8322    27.8901   285.2168 </r>
       <r>    12.9216    29.4208   287.8474 </r>
       <r>    13.0110    31.3935   290.6543 </r>
       <r>    13.1004    34.7422   293.7606 </r>
       <r>    13.1898    34.9753   296.8878 </r>
       <r>    13.2792    27.1925   299.3191 </r>
       <r>    13.3686    16.2920   300.7757 </r>
       <r>    13.4580    13.4913   301.9820 </r>
       <r>    13.5474    22.5895   304.0018 </r>
       <r>    13.6369    33.8915   307.0320 </r>
       <r>    13.7263    36.0697   310.2570 </r>
       <r>    13.8157    30.2477   312.9615 </r>
       <r>    13.9051    26.3241   315.3152 </r>
       <r>    13.9945    28.7417   317.8850 </r>
       <r>    14.0839    31.9594   320.7425 </r>
       <r>    14.1733    29.5056   323.3806 </r>
       <r>    14.2627    21.0450   325.2623 </r>
       <r>    14.3521    10.7120   326.2200 </r>
       <r>    14.4416     3.4919   326.5322 </r>
       <r>    14.5310     2.6394   326.7682 </r>
       <r>    14.6204     8.5178   327.5298 </r>
       <r>    14.7098    17.1750   329.0654 </r>
       <r>    14.7992    21.6157   330.9981 </r>
       <r>    14.8886    19.2939   332.7232 </r>
       <r>    14.9780    13.6456   333.9433 </r>
       <r>    15.0674     7.6018   334.6229 </r>
       <r>    15.1568     2.5226   334.8485 </r>
       <r>    15.2463     0.1423   334.8612 </r>
       <r>    15.3357     1.1385   334.9630 </r>
       <r>    15.4251     3.7034   335.2941 </r>
       <r>    15.5145     4.6488   335.7098 </r>
       <r>    15.6039     2.9425   335.9729 </r>
       <r>    15.6933     0.7494   336.0399 </r>
       <r>    15.7827    -0.1772   336.0240 </r>
       <r>    15.8721    -0.1920   336.0069 </r>
       <r>    15.9615    -0.0636   336.0012 </r>
       <r>    16.0509    -0.0116   336.0001 </r>
       <r>    16.1404    -0.0013   336.0000 </r>
       <r>    16.2298    -0.0001   336.0000 </r>
       <r>    16.3192    -0.0000   336.0000 </r>
       <r>    16.4086    -0.0000   336.0000 </r>
       <r>    16.4980    -0.0000   336.0000 </r>
       <r>    16.5874    -0.0000   336.0000 </r>
       <r>    16.6768    -0.0000   336.0000 </r>
       <r>    16.7662    -0.0000   336.0000 </r>
       <r>    16.8556     0.0000   336.0000 </r>
       <r>    16.9451     0.0000   336.0000 </r>
       <r>    17.0345     0.0000   336.0000 </r>
       <r>    17.1239     0.0000   336.0000 </r>
       <r>    17.2133     0.0000   336.0000 </r>
       <r>    17.3027     0.0000   336.0000 </r>
       <r>    17.3921     0.0000   336.0000 </r>
       <r>    17.4815     0.0000   336.0000 </r>
      </set>
     </set>
    </array>
   </total>
  </dos>
 </calculation>
 <structure name="finalpos" >
  <crystal>
   <varray name="basis" >
    <v>       8.74331558       0.00000000       0.00000000 </v>
    <v>       0.00000000       8.74331558       0.00000000 </v>
    <v>       0.00000000       0.00000000       8.74331558 </v>
   </varray>
   <i name="volume">    668.38771987 </i>
   <varray name="rec_basis" >
    <v>       0.11437309       0.00000000       0.00000000 </v>
    <v>       0.00000000       0.11437309       0.00000000 </v>
    <v>       0.00000000       0.00000000       0.11437309 </v>
   </varray>
  </crystal>
  <varray name="positions" >
   <v>       0.12095083       0.12557891       0.12454345 </v>
   <v>       0.12290488       0.37914185       0.37264253 </v>
   <v>       0.37697417       0.12587902       0.37305785 </v>
   <v>       0.37460602       0.37456447       0.12353075 </v>
   <v>       0.12164359       0.12398656       0.62511790 </v>
   <v>       0.12368899       0.37520242       0.87407852 </v>
   <v>       0.37731663       0.12539029       0.87433521 </v>
   <v>       0.37550415       0.37536210       0.62672297 </v>
   <v>       0.12894798       0.62449882       0.12400602 </v>
   <v>       0.12808578       0.87332112       0.37380806 </v>
   <v>       0.37422916       0.62621264       0.37643389 </v>
   <v>       0.37538325       0.87432715       0.12157634 </v>
   <v>       0.12374528       0.62247616       0.62559225 </v>
   <v>       0.12269686       0.87190335       0.87421600 </v>
   <v>       0.37375308       0.62394465       0.87599770 </v>
   <v>       0.37587685       0.87491351       0.62340900 </v>
   <v>       0.62548833       0.12646244       0.12451125 </v>
   <v>       0.61993854       0.37382812       0.37703298 </v>
   <v>       0.87779949       0.12449789       0.37267074 </v>
   <v>       0.87641480       0.37494271       0.12297672 </v>
   <v>       0.62676634       0.12353345       0.62502823 </v>
   <v>       0.62438002       0.37412420       0.87462874 </v>
   <v>       0.87558917       0.12641488       0.87672305 </v>
   <v>       0.87537188       0.37647728       0.62750808 </v>
   <v>       0.62759870       0.62464257       0.12582082 </v>
   <v>       0.62634122       0.87655539       0.37577379 </v>
   <v>       0.87700439       0.62557016       0.37651113 </v>
   <v>       0.87797816       0.87586583       0.12374512 </v>
   <v>       0.62347901       0.62529358       0.62511772 </v>
   <v>       0.62480548       0.87685088       0.87421942 </v>
   <v>       0.87373226       0.62236505       0.87448360 </v>
   <v>       0.87838202       0.87810227       0.62703476 </v>
   <v>       0.99995553       0.99824569       0.00146599 </v>
   <v>       0.00024935       0.25175694       0.25147345 </v>
   <v>       0.25125312       0.99761298       0.25144644 </v>
   <v>       0.24790616       0.24978842       0.00015225 </v>
   <v>       0.00143210       0.99735228       0.50033123 </v>
   <v>       0.99773840       0.25099083       0.74939802 </v>
   <v>       0.25009526       0.00263078       0.74838600 </v>
   <v>       0.24793595       0.25092293       0.49825263 </v>
   <v>       0.99828831       0.49965842       0.99902355 </v>
   <v>       0.99794833       0.75106473       0.25099178 </v>
   <v>       0.25166821       0.49674611       0.25058470 </v>
   <v>       0.25292882       0.75073476       0.00438517 </v>
   <v>       0.99983287       0.50250856       0.49950081 </v>
   <v>       0.00149907       0.75150802       0.75200441 </v>
   <v>       0.25289188       0.50102183       0.74818091 </v>
   <v>       0.25160200       0.74565808       0.49801109 </v>
   <v>       0.50218328       0.99859049       0.99832301 </v>
   <v>       0.49834127       0.24820913       0.24848061 </v>
   <v>       0.74557441       0.00256652       0.24763693 </v>
   <v>       0.75155346       0.24670560       0.00196169 </v>
   <v>       0.50330982       0.99974315       0.49601128 </v>
   <v>       0.50040078       0.24944011       0.74818603 </v>
   <v>       0.75128337       0.99708106       0.75332501 </v>
   <v>       0.75228161       0.25375948       0.49897293 </v>
   <v>       0.50056141       0.50299968       0.99881824 </v>
   <v>       0.50147792       0.75081040       0.24999485 </v>
   <v>       0.75082938       0.49919827       0.25350241 </v>
   <v>       0.74724612       0.74786224       0.00315136 </v>
   <v>       0.49845168       0.49815545       0.50062863 </v>
   <v>       0.50029981       0.74938386       0.74935792 </v>
   <v>       0.75195842       0.49951689       0.74911981 </v>
   <v>       0.75054089       0.75162452       0.49892238 </v>
  </varray>
 </structure>
</modeling>
