unknown system                          
           1
     8.743316    0.000000    0.000000
     0.000000    8.743316    0.000000
     0.000000    0.000000    8.743316
   C    Si
    32    32
Direct configuration=     1
   0.12095083  0.12557891  0.12454345
   0.12290488  0.37914185  0.37264253
   0.37697417  0.12587902  0.37305785
   0.37460602  0.37456447  0.12353075
   0.12164359  0.12398656  0.62511790
   0.12368899  0.37520242  0.87407852
   0.37731663  0.12539029  0.87433521
   0.37550415  0.37536210  0.62672297
   0.12894798  0.62449882  0.12400602
   0.12808578  0.87332112  0.37380806
   0.37422916  0.62621264  0.37643389
   0.37538325  0.87432715  0.12157634
   0.12374528  0.62247616  0.62559225
   0.12269686  0.87190335  0.87421600
   0.37375308  0.62394465  0.87599770
   0.37587685  0.87491351  0.62340900
   0.62548833  0.12646244  0.12451125
   0.61993854  0.37382812  0.37703298
   0.87779949  0.12449789  0.37267074
   0.87641480  0.37494271  0.12297672
   0.62676634  0.12353345  0.62502823
   0.62438002  0.37412420  0.87462874
   0.87558917  0.12641488  0.87672305
   0.87537188  0.37647728  0.62750808
   0.62759870  0.62464257  0.12582082
   0.62634122  0.87655539  0.37577379
   0.87700439  0.62557016  0.37651113
   0.87797816  0.87586583  0.12374512
   0.62347901  0.62529358  0.62511772
   0.62480548  0.87685088  0.87421942
   0.87373226  0.62236505  0.87448360
   0.87838202  0.87810227  0.62703476
   0.99995553  0.99824569  0.00146599
   0.00024935  0.25175694  0.25147345
   0.25125312  0.99761298  0.25144644
   0.24790616  0.24978842  0.00015225
   0.00143210  0.99735228  0.50033123
   0.99773840  0.25099083  0.74939802
   0.25009526  0.00263078  0.74838600
   0.24793595  0.25092293  0.49825263
   0.99828831  0.49965842  0.99902355
   0.99794833  0.75106473  0.25099178
   0.25166821  0.49674611  0.25058470
   0.25292882  0.75073476  0.00438517
   0.99983287  0.50250856  0.49950081
   0.00149907  0.75150802  0.75200441
   0.25289188  0.50102183  0.74818091
   0.25160200  0.74565808  0.49801109
   0.50218328  0.99859049  0.99832301
   0.49834127  0.24820913  0.24848061
   0.74557441  0.00256652  0.24763693
   0.75155346  0.24670560  0.00196169
   0.50330982  0.99974315  0.49601128
   0.50040078  0.24944011  0.74818603
   0.75128337  0.99708106  0.75332501
   0.75228161  0.25375948  0.49897293
   0.50056141  0.50299968  0.99881824
   0.50147792  0.75081040  0.24999485
   0.75082938  0.49919827  0.25350241
   0.74724612  0.74786224  0.00315136
   0.49845168  0.49815545  0.50062863
   0.50029981  0.74938386  0.74935792
   0.75195842  0.49951689  0.74911981
   0.75054089  0.75162452  0.49892238
