       N       E                     dE             d eps       ncg     rms          rms(c)
DAV:   1     0.669225992354E+03    0.66923E+03   -0.99551E+04  4704   0.111E+03
DAV:   2    -0.462749955788E+03   -0.11320E+04   -0.10721E+04  5824   0.221E+02
DAV:   3    -0.537898612388E+03   -0.75149E+02   -0.74451E+02  5680   0.561E+01
DAV:   4    -0.539558039037E+03   -0.16594E+01   -0.16524E+01  5712   0.904E+00
DAV:   5    -0.539604007288E+03   -0.45968E-01   -0.45896E-01  5536   0.143E+00    0.492E+01
DAV:   6    -0.482960256132E+03    0.56644E+02   -0.19027E+02  5368   0.234E+01    0.218E+01
DAV:   7    -0.481598761114E+03    0.13615E+01   -0.15627E+01  5888   0.700E+00    0.973E+00
DAV:   8    -0.481371084081E+03    0.22768E+00   -0.10054E+00  5400   0.195E+00    0.259E+00
DAV:   9    -0.481354725717E+03    0.16358E-01   -0.13723E-01  5472   0.796E-01    0.426E-01
DAV:  10    -0.481358083794E+03   -0.33581E-02   -0.12667E-02  5648   0.241E-01    0.224E-01
DAV:  11    -0.481358896956E+03   -0.81316E-03   -0.16440E-03  5160   0.105E-01    0.705E-02
DAV:  12    -0.481358903409E+03   -0.64531E-05   -0.24695E-04  5768   0.368E-02    0.348E-02
DAV:  13    -0.481358910763E+03   -0.73537E-05   -0.54028E-05  5296   0.185E-02    0.103E-02
DAV:  14    -0.481358917971E+03   -0.72080E-05   -0.67589E-06  5304   0.536E-03    0.494E-03
DAV:  15    -0.481358919575E+03   -0.16036E-05   -0.11638E-06  5792   0.251E-03    0.371E-03
DAV:  16    -0.481358919406E+03    0.16924E-06   -0.78374E-08  5528   0.733E-04    0.157E-03
DAV:  17    -0.481358919493E+03   -0.87704E-07   -0.42574E-08  4344   0.449E-04    0.626E-04
DAV:  18    -0.481358919478E+03    0.15501E-07   -0.46627E-09  2776   0.179E-04    0.253E-04
DAV:  19    -0.481358919456E+03    0.21635E-07   -0.12326E-09  2696   0.848E-05    0.691E-05
DAV:  20    -0.481358919455E+03    0.11569E-08   -0.20110E-10  2688   0.377E-05
   1 F= -.48135892E+03 E0= -.48136215E+03  d E =0.968980E-02
