<?xml version="1.0" encoding="ISO-8859-1"?>
<modeling>
 <generator>
  <i name="program" type="string">vasp </i>
  <i name="version" type="string">6.2.1  </i>
  <i name="subversion" type="string">16May21 (build Jun 06 2020 10:27:25) complex                          parallel </i>
  <i name="platform" type="string">LinuxIFC </i>
  <i name="date" type="string">2024 01 12 </i>
  <i name="time" type="string">18:03:52 </i>
 </generator>
 <incar>
  <i type="int" name="NELM">    60</i>
  <i type="int" name="IBRION">     1</i>
  <i name="EDIFF">      0.00000001</i>
  <i type="int" name="NSW">     0</i>
  <i type="int" name="ISIF">     3</i>
  <i type="int" name="ISYM">     0</i>
  <i type="logical" name="LWAVE"> F  </i>
  <i type="logical" name="LCHARG"> F  </i>
  <i type="string" name="GGA">PE</i>
 </incar>
 <primitive_cell>
  <structure name="primitive_cell" >
   <crystal>
    <varray name="basis" >
     <v>       8.74331558       0.00000000       0.00000000 </v>
     <v>       0.00000000       8.74331558       0.00000000 </v>
     <v>       0.00000000       0.00000000       8.74331558 </v>
    </varray>
    <i name="volume">    668.38771987 </i>
    <varray name="rec_basis" >
     <v>       0.11437309       0.00000000       0.00000000 </v>
     <v>       0.00000000       0.11437309       0.00000000 </v>
     <v>       0.00000000       0.00000000       0.11437309 </v>
    </varray>
   </crystal>
   <varray name="positions" >
    <v>       0.12784265       0.12777481       0.12424048 </v>
    <v>       0.12486900       0.37174182       0.37447165 </v>
    <v>       0.37100348       0.12443440       0.37136849 </v>
    <v>       0.37653657       0.37730927       0.12285523 </v>
    <v>       0.12469914       0.12466002       0.62475928 </v>
    <v>       0.12309862       0.37301858       0.87842519 </v>
    <v>       0.37643391       0.12216733       0.87700650 </v>
    <v>       0.37677779       0.37427316       0.62397706 </v>
    <v>       0.12475552       0.62655521       0.12480411 </v>
    <v>       0.12401529       0.87683238       0.37700664 </v>
    <v>       0.37355269       0.62980389       0.37276848 </v>
    <v>       0.37456716       0.87333052       0.12444441 </v>
    <v>       0.12229692       0.62651685       0.62400025 </v>
    <v>       0.12568351       0.87457453       0.87817577 </v>
    <v>       0.37464119       0.62465875       0.87224266 </v>
    <v>       0.37358203       0.87376834       0.62042257 </v>
    <v>       0.62359124       0.12388732       0.12216873 </v>
    <v>       0.62573764       0.37643891       0.37904555 </v>
    <v>       0.87406105       0.12587253       0.37436815 </v>
    <v>       0.87676184       0.37487121       0.12401823 </v>
    <v>       0.62846537       0.12344749       0.62414161 </v>
    <v>       0.62424704       0.37684048       0.87105437 </v>
    <v>       0.87744958       0.12884459       0.87511186 </v>
    <v>       0.87582903       0.37363621       0.62738652 </v>
    <v>       0.62762040       0.62704292       0.12453663 </v>
    <v>       0.62340996       0.87774259       0.37403159 </v>
    <v>       0.87759480       0.62437370       0.37184917 </v>
    <v>       0.87529027       0.87292467       0.12464118 </v>
    <v>       0.62384862       0.62292610       0.62521486 </v>
    <v>       0.62385409       0.88012773       0.87525028 </v>
    <v>       0.87390857       0.62630364       0.87302551 </v>
    <v>       0.87603921       0.87697135       0.62951301 </v>
    <v>       0.99830622       0.99477144       0.99914823 </v>
    <v>       0.00092828       0.24880975       0.25304614 </v>
    <v>       0.25023978       0.99920100       0.25017983 </v>
    <v>       0.24677000       0.24950716       0.00161817 </v>
    <v>       0.99962124       0.99972102       0.49982769 </v>
    <v>       0.99973054       0.24724429       0.75194545 </v>
    <v>       0.24866042       0.00139418       0.75260951 </v>
    <v>       0.25078258       0.24799170       0.50025561 </v>
    <v>       0.99943931       0.49747021       0.99870063 </v>
    <v>       0.99879759       0.75156320       0.25143736 </v>
    <v>       0.24902386       0.50186743       0.25059787 </v>
    <v>       0.25061142       0.75205207       0.00297697 </v>
    <v>       0.00368932       0.49789094       0.49971924 </v>
    <v>       0.00173657       0.74625603       0.75311446 </v>
    <v>       0.24796000       0.50112447       0.75294671 </v>
    <v>       0.24815749       0.74984882       0.50019347 </v>
    <v>       0.50033860       0.99957929       0.00077969 </v>
    <v>       0.50006610       0.25261358       0.24790480 </v>
    <v>       0.74729525       0.99744613       0.25050071 </v>
    <v>       0.75309654       0.25256460       0.00137543 </v>
    <v>       0.49876389       0.99652317       0.50265771 </v>
    <v>       0.49955132       0.25031585       0.74861490 </v>
    <v>       0.74959829       0.99912792       0.74965833 </v>
    <v>       0.75039116       0.25254504       0.49522861 </v>
    <v>       0.49989171       0.50152290       0.00202189 </v>
    <v>       0.49985637       0.75156650       0.25165865 </v>
    <v>       0.75065803       0.49816651       0.24980030 </v>
    <v>       0.75370692       0.75106457       0.99855592 </v>
    <v>       0.49840364       0.49840523       0.50016810 </v>
    <v>       0.49703051       0.74974733       0.74953548 </v>
    <v>       0.74815531       0.49985945       0.74950651 </v>
    <v>       0.75150158       0.75287276       0.49896746 </v>
   </varray>
  </structure>
  <varray name="primitive_index" >
   <v type="int" >        1 </v>
   <v type="int" >        2 </v>
   <v type="int" >        3 </v>
   <v type="int" >        4 </v>
   <v type="int" >        5 </v>
   <v type="int" >        6 </v>
   <v type="int" >        7 </v>
   <v type="int" >        8 </v>
   <v type="int" >        9 </v>
   <v type="int" >       10 </v>
   <v type="int" >       11 </v>
   <v type="int" >       12 </v>
   <v type="int" >       13 </v>
   <v type="int" >       14 </v>
   <v type="int" >       15 </v>
   <v type="int" >       16 </v>
   <v type="int" >       17 </v>
   <v type="int" >       18 </v>
   <v type="int" >       19 </v>
   <v type="int" >       20 </v>
   <v type="int" >       21 </v>
   <v type="int" >       22 </v>
   <v type="int" >       23 </v>
   <v type="int" >       24 </v>
   <v type="int" >       25 </v>
   <v type="int" >       26 </v>
   <v type="int" >       27 </v>
   <v type="int" >       28 </v>
   <v type="int" >       29 </v>
   <v type="int" >       30 </v>
   <v type="int" >       31 </v>
   <v type="int" >       32 </v>
   <v type="int" >       33 </v>
   <v type="int" >       34 </v>
   <v type="int" >       35 </v>
   <v type="int" >       36 </v>
   <v type="int" >       37 </v>
   <v type="int" >       38 </v>
   <v type="int" >       39 </v>
   <v type="int" >       40 </v>
   <v type="int" >       41 </v>
   <v type="int" >       42 </v>
   <v type="int" >       43 </v>
   <v type="int" >       44 </v>
   <v type="int" >       45 </v>
   <v type="int" >       46 </v>
   <v type="int" >       47 </v>
   <v type="int" >       48 </v>
   <v type="int" >       49 </v>
   <v type="int" >       50 </v>
   <v type="int" >       51 </v>
   <v type="int" >       52 </v>
   <v type="int" >       53 </v>
   <v type="int" >       54 </v>
   <v type="int" >       55 </v>
   <v type="int" >       56 </v>
   <v type="int" >       57 </v>
   <v type="int" >       58 </v>
   <v type="int" >       59 </v>
   <v type="int" >       60 </v>
   <v type="int" >       61 </v>
   <v type="int" >       62 </v>
   <v type="int" >       63 </v>
   <v type="int" >       64 </v>
  </varray>
 </primitive_cell>
 <kpoints>
  <generation param="Monkhorst-Pack">
   <v type="int" name="divisions">       3        3        3 </v>
   <v name="usershift">      0.00000000       0.00000000       0.00000000 </v>
   <v name="genvec1">      0.33333333       0.00000000       0.00000000 </v>
   <v name="genvec2">      0.00000000       0.33333333       0.00000000 </v>
   <v name="genvec3">      0.00000000       0.00000000       0.33333333 </v>
   <v name="shift">      0.00000000       0.00000000       0.00000000 </v>
  </generation>
  <varray name="kpointlist" >
   <v>       0.00000000       0.00000000       0.00000000 </v>
   <v>       0.33333333       0.00000000       0.00000000 </v>
   <v>       0.00000000       0.33333333       0.00000000 </v>
   <v>       0.00000000       0.00000000       0.33333333 </v>
   <v>       0.33333333       0.33333333       0.00000000 </v>
   <v>       0.00000000       0.33333333       0.33333333 </v>
   <v>       0.33333333       0.00000000       0.33333333 </v>
   <v>      -0.33333333       0.33333333       0.00000000 </v>
   <v>      -0.33333333       0.00000000       0.33333333 </v>
   <v>       0.00000000      -0.33333333       0.33333333 </v>
   <v>       0.33333333       0.33333333       0.33333333 </v>
   <v>      -0.33333333       0.33333333       0.33333333 </v>
   <v>      -0.33333333      -0.33333333       0.33333333 </v>
   <v>       0.33333333      -0.33333333       0.33333333 </v>
  </varray>
  <varray name="weights" >
   <v>       0.03703704 </v>
   <v>       0.07407407 </v>
   <v>       0.07407407 </v>
   <v>       0.07407407 </v>
   <v>       0.07407407 </v>
   <v>       0.07407407 </v>
   <v>       0.07407407 </v>
   <v>       0.07407407 </v>
   <v>       0.07407407 </v>
   <v>       0.07407407 </v>
   <v>       0.07407407 </v>
   <v>       0.07407407 </v>
   <v>       0.07407407 </v>
   <v>       0.07407407 </v>
  </varray>
 </kpoints>
 <parameters>
  <separator name="general" >
   <i type="string" name="SYSTEM">unknown system</i>
   <i type="logical" name="LCOMPAT"> F  </i>
  </separator>
  <separator name="electronic" >
   <i type="string" name="PREC">normal</i>
   <i name="ENMAX">    400.00000000</i>
   <i name="ENAUG">    644.87300000</i>
   <i name="EDIFF">      0.00000001</i>
   <i type="int" name="IALGO">    38</i>
   <i type="int" name="IWAVPR">    10</i>
   <i type="int" name="NBANDS">   168</i>
   <i type="int" name="NBANDSLOW">    -1</i>
   <i type="int" name="NBANDSHIGH">    -1</i>
   <i name="NELECT">    256.00000000</i>
   <i type="int" name="TURBO">     0</i>
   <i type="int" name="IRESTART">     0</i>
   <i type="int" name="NREBOOT">     0</i>
   <i type="int" name="NMIN">     0</i>
   <i name="EREF">      0.00000000</i>
   <separator name="electronic smearing" >
    <i type="int" name="ISMEAR">     1</i>
    <i name="SIGMA">      0.20000000</i>
    <i name="KSPACING">      0.50000000</i>
    <i type="logical" name="KGAMMA"> T  </i>
    <i type="logical" name="KBLOWUP"> T  </i>
   </separator>
   <separator name="electronic projectors" >
    <i type="logical" name="LREAL"> F  </i>
    <v name="ROPT">      0.00000000      0.00000000</v>
    <i type="int" name="LMAXPAW">  -100</i>
    <i type="int" name="LMAXMIX">     2</i>
    <i type="logical" name="NLSPLINE"> F  </i>
   </separator>
   <separator name="electronic startup" >
    <i type="int" name="ISTART">     0</i>
    <i type="int" name="ICHARG">     2</i>
    <i type="int" name="INIWAV">     1</i>
   </separator>
   <separator name="electronic spin" >
    <i type="int" name="ISPIN">     1</i>
    <i type="logical" name="LNONCOLLINEAR"> F  </i>
    <v name="MAGMOM">      1.00000000      1.00000000      1.00000000      1.00000000      1.00000000      1.00000000      1.00000000      1.00000000      1.00000000      1.00000000      1.00000000      1.00000000      1.00000000      1.00000000      1.00000000      1.00000000      1.00000000      1.00000000      1.00000000      1.00000000
      1.00000000      1.00000000      1.00000000      1.00000000      1.00000000      1.00000000      1.00000000      1.00000000      1.00000000      1.00000000      1.00000000      1.00000000      1.00000000      1.00000000      1.00000000      1.00000000      1.00000000      1.00000000      1.00000000      1.00000000
      1.00000000      1.00000000      1.00000000      1.00000000      1.00000000      1.00000000      1.00000000      1.00000000      1.00000000      1.00000000      1.00000000      1.00000000      1.00000000      1.00000000      1.00000000      1.00000000      1.00000000      1.00000000      1.00000000      1.00000000
      1.00000000      1.00000000      1.00000000      1.00000000</v>
    <i name="NUPDOWN">     -1.00000000</i>
    <i type="logical" name="LSORBIT"> F  </i>
    <v name="SAXIS">      0.00000000      0.00000000      1.00000000</v>
    <i type="logical" name="LSPIRAL"> F  </i>
    <v name="QSPIRAL">      0.00000000      0.00000000      0.00000000</v>
    <i type="logical" name="LZEROZ"> F  </i>
   </separator>
   <separator name="electronic exchange-correlation" >
    <i type="logical" name="LASPH"> F  </i>
    <i type="logical" name="LMETAGGA"> F  </i>
   </separator>
   <separator name="electronic convergence" >
    <i type="int" name="NELM">    60</i>
    <i type="int" name="NELMDL">    -5</i>
    <i type="int" name="NELMIN">     2</i>
    <i name="ENINI">    400.00000000</i>
    <separator name="electronic convergence detail" >
     <i type="logical" name="LDIAG"> T  </i>
     <i type="logical" name="LSUBROT"> F  </i>
     <i name="WEIMIN">      0.00000000</i>
     <i name="EBREAK">      0.00000000</i>
     <i name="DEPER">      0.30000000</i>
     <i type="int" name="NRMM">     4</i>
     <i name="TIME">      0.40000000</i>
    </separator>
   </separator>
   <separator name="electronic mixer" >
    <i name="AMIX">      0.40000000</i>
    <i name="BMIX">      1.00000000</i>
    <i name="AMIN">      0.10000000</i>
    <i name="AMIX_MAG">      1.60000000</i>
    <i name="BMIX_MAG">      1.00000000</i>
    <separator name="electronic mixer details" >
     <i type="int" name="IMIX">     4</i>
     <i type="logical" name="MIXFIRST"> F  </i>
     <i type="int" name="MAXMIX">   -45</i>
     <i name="WC">    100.00000000</i>
     <i type="int" name="INIMIX">     1</i>
     <i type="int" name="MIXPRE">     1</i>
     <i type="int" name="MREMOVE">     5</i>
    </separator>
   </separator>
   <separator name="electronic dipolcorrection" >
    <i type="logical" name="LDIPOL"> F  </i>
    <i type="logical" name="LMONO"> F  </i>
    <i type="int" name="IDIPOL">     0</i>
    <i name="EPSILON">      1.00000000</i>
    <v name="DIPOL">   -100.00000000   -100.00000000   -100.00000000</v>
    <i name="EFIELD">      0.00000000</i>
   </separator>
  </separator>
  <separator name="grids" >
   <i type="int" name="NGX">    48</i>
   <i type="int" name="NGY">    48</i>
   <i type="int" name="NGZ">    48</i>
   <i type="int" name="NGXF">    96</i>
   <i type="int" name="NGYF">    96</i>
   <i type="int" name="NGZF">    96</i>
   <i type="logical" name="ADDGRID"> F  </i>
  </separator>
  <separator name="ionic" >
   <i type="int" name="NSW">     0</i>
   <i type="int" name="IBRION">    -1</i>
   <i type="int" name="MDALGO">     0</i>
   <i type="int" name="ISIF">     3</i>
   <i name="PSTRESS">      0.00000000</i>
   <i name="EDIFFG">      0.00000010</i>
   <i type="int" name="NFREE">     0</i>
   <i name="POTIM">      0.50000000</i>
   <i name="SMASS">     -3.00000000</i>
   <i name="SCALEE">      1.00000000</i>
  </separator>
  <separator name="ionic md" >
   <i name="TEBEG">      0.00010000</i>
   <i name="TEEND">      0.00010000</i>
   <i type="int" name="NBLOCK">     1</i>
   <i type="int" name="KBLOCK">     1</i>
   <i type="int" name="NPACO">   256</i>
   <i name="APACO">     16.00000000</i>
  </separator>
  <separator name="symmetry" >
   <i type="int" name="ISYM">     0</i>
   <i name="SYMPREC">      0.00001000</i>
  </separator>
  <separator name="dos" >
   <i type="int" name="LORBIT">     0</i>
   <v name="RWIGS">     -1.00000000     -1.00000000</v>
   <i type="int" name="NEDOS">   301</i>
   <i name="EMIN">     10.00000000</i>
   <i name="EMAX">    -10.00000000</i>
   <i name="EFERMI">      0.00000000</i>
  </separator>
  <separator name="writing" >
   <i type="int" name="NWRITE">     2</i>
   <i type="logical" name="LWAVE"> F  </i>
   <i type="logical" name="LDOWNSAMPLE"> F  </i>
   <i type="logical" name="LCHARG"> F  </i>
   <i type="logical" name="LPARD"> F  </i>
   <i type="logical" name="LVTOT"> F  </i>
   <i type="logical" name="LVHAR"> F  </i>
   <i type="logical" name="LELF"> F  </i>
   <i type="logical" name="LOPTICS"> F  </i>
   <v name="STM">      0.00000000      0.00000000      0.00000000      0.00000000      0.00000000      0.00000000      0.00000000</v>
  </separator>
  <separator name="performance" >
   <i type="int" name="NPAR">     8</i>
   <i type="int" name="NSIM">     4</i>
   <i type="int" name="NBLK">    -1</i>
   <i type="logical" name="LPLANE"> T  </i>
   <i type="logical" name="LSCALAPACK"> T  </i>
   <i type="logical" name="LSCAAWARE"> F  </i>
   <i type="logical" name="LSCALU"> F  </i>
   <i type="logical" name="LASYNC"> F  </i>
   <i type="logical" name="LORBITALREAL"> F  </i>
  </separator>
  <separator name="miscellaneous" >
   <i type="int" name="IDIOT">     3</i>
   <i type="int" name="PHON_NSTRUCT">    -1</i>
   <i type="logical" name="LMUSIC"> F  </i>
   <v name="POMASS">     12.01100000     28.08500000</v>
   <v name="DARWINR">      0.00000000      0.00000000</v>
   <v name="DARWINV">      1.00000000      1.00000000</v>
   <i type="logical" name="LCORR"> T  </i>
  </separator>
  <i type="logical" name="GGA_COMPAT"> T  </i>
  <i type="logical" name="LBERRY"> F  </i>
  <i type="int" name="ICORELEVEL">     0</i>
  <i type="logical" name="LDAU"> F  </i>
  <i type="int" name="I_CONSTRAINED_M">     0</i>
  <separator name="electronic exchange-correlation" >
   <i type="string" name="GGA">PE</i>
   <i type="int" name="VOSKOWN">     0</i>
   <i type="logical" name="LHFCALC"> F  </i>
   <i type="string" name="PRECFOCK"></i>
   <i type="logical" name="LSYMGRAD"> F  </i>
   <i type="logical" name="LHFONE"> F  </i>
   <i type="logical" name="LRHFCALC"> F  </i>
   <i type="logical" name="LTHOMAS"> F  </i>
   <i type="logical" name="LMODELHF"> F  </i>
   <i type="logical" name="LFOCKACE"> F  </i>
   <i name="ENCUT4O">     -1.00000000</i>
   <i type="int" name="EXXOEP">     0</i>
   <i type="int" name="FOURORBIT">     0</i>
   <i name="AEXX">      0.00000000</i>
   <i name="HFALPHA">      0.00000000</i>
   <i name="MCALPHA">      0.00000000</i>
   <i name="ALDAX">      1.00000000</i>
   <i name="AGGAX">      1.00000000</i>
   <i name="ALDAC">      1.00000000</i>
   <i name="AGGAC">      1.00000000</i>
   <i type="int" name="NKREDX">     1</i>
   <i type="int" name="NKREDY">     1</i>
   <i type="int" name="NKREDZ">     1</i>
   <i type="logical" name="SHIFTRED"> F  </i>
   <i type="logical" name="ODDONLY"> F  </i>
   <i type="logical" name="EVENONLY"> F  </i>
   <i type="int" name="LMAXFOCK">     0</i>
   <i type="int" name="NMAXFOCKAE">     0</i>
   <i type="logical" name="LFOCKAEDFT"> F  </i>
   <i name="HFSCREEN">      0.00000000</i>
   <i name="HFSCREENC">      0.00000000</i>
   <i type="int" name="NBANDSGWLOW">     0</i>
  </separator>
  <separator name="vdW DFT" >
   <i type="logical" name="LUSE_VDW"> F  </i>
   <i name="Zab_VDW">     -0.84910000</i>
   <i name="PARAM1">      0.12340000</i>
   <i name="PARAM2">      1.00000000</i>
   <i name="PARAM3">      0.00000000</i>
  </separator>
  <separator name="model GW" >
   <i type="int" name="MODEL_GW">     0</i>
   <i name="MODEL_EPS0">      6.26613487</i>
   <i name="MODEL_ALPHA">      1.00000000</i>
  </separator>
  <separator name="linear response parameters" >
   <i type="logical" name="LEPSILON"> F  </i>
   <i type="logical" name="LRPA"> F  </i>
   <i type="logical" name="LNABLA"> F  </i>
   <i type="logical" name="LVEL"> F  </i>
   <i type="int" name="KINTER">     0</i>
   <i name="CSHIFT">      0.10000000</i>
   <i name="OMEGAMAX">     -1.00000000</i>
   <i name="DEG_THRESHOLD">      0.00200000</i>
   <i name="RTIME">     -0.10000000</i>
   <i name="WPLASMAI">      0.00000000</i>
   <v name="DFIELD">      0.00000000      0.00000000      0.00000000</v>
   <v name="WPLASMA">      0.00000000      0.00000000      0.00000000      0.00000000      0.00000000      0.00000000      0.00000000      0.00000000      0.00000000</v>
  </separator>
  <separator name="orbital magnetization" >
   <i type="logical" name="NUCIND"> F  </i>
   <v name="MAGPOS">      0.00000000      0.00000000      0.00000000</v>
   <i type="logical" name="LNICSALL"> T  </i>
   <i type="logical" name="ORBITALMAG"> F  </i>
   <i type="logical" name="LMAGBLOCH"> F  </i>
   <i type="logical" name="LCHIMAG"> F  </i>
   <i type="logical" name="LGAUGE"> T  </i>
   <i type="int" name="MAGATOM">     0</i>
   <v name="MAGDIPOL">      0.00000000      0.00000000      0.00000000</v>
   <v name="AVECCONST">      0.00000000      0.00000000      0.00000000</v>
  </separator>
  <separator name="response functions" >
   <i type="logical" name="LFINITE_TEMPERATURE"> F  </i>
   <i type="logical" name="LADDER"> F  </i>
   <i type="logical" name="LRPAFORCE"> F  </i>
   <i type="logical" name="LFXC"> F  </i>
   <i type="logical" name="LHARTREE"> T  </i>
   <i type="int" name="IBSE">     0</i>
   <v type="int" name="KPOINT">    -1     0     0     0</v>
   <i type="logical" name="LTCTC"> F  </i>
   <i type="logical" name="LTCTE"> F  </i>
   <i type="logical" name="LTETE"> F  </i>
   <i type="logical" name="LTRIPLET"> F  </i>
   <i type="logical" name="LFXCEPS"> F  </i>
   <i type="logical" name="LFXHEG"> F  </i>
   <i type="int" name="NATURALO">     2</i>
   <i type="logical" name="LHOLEGF"> F  </i>
   <i type="logical" name="L2ORDER"> F  </i>
   <i type="logical" name="LDMP1"> F  </i>
   <i type="logical" name="LMP2LT"> F  </i>
   <i type="logical" name="LSMP2LT"> F  </i>
   <i type="logical" name="LGWLF"> F  </i>
   <i name="ENCUTGW">     -2.00000000</i>
   <i name="ENCUTGWSOFT">     -2.00000000</i>
   <i name="ENCUTLF">     -1.00000000</i>
   <i type="logical" name="LESF_SPLINES"> F  </i>
   <i type="int" name="LMAXMP2">    -1</i>
   <i name="SCISSOR">      0.00000000</i>
   <i type="int" name="NOMEGA">     0</i>
   <i type="int" name="NOMEGAR">     0</i>
   <i type="int" name="NBANDSGW">    -1</i>
   <i type="int" name="NBANDSO">    -1</i>
   <i type="int" name="NBANDSV">    -1</i>
   <i type="int" name="NELM">    60</i>
   <i type="int" name="NELMHF">     1</i>
   <i type="int" name="DIM">     3</i>
   <i type="int" name="IESPILON">     4</i>
   <i type="int" name="ANTIRES">     0</i>
   <i name="OMEGAMAX">    -30.00000000</i>
   <i name="OMEGAMIN">    -30.00000000</i>
   <i name="OMEGATL">   -200.00000000</i>
   <i type="int" name="OMEGAGRID">     0</i>
   <i name="CSHIFT">     -0.10000000</i>
   <i type="logical" name="LSELFENERGY"> F  </i>
   <i type="logical" name="LSPECTRAL"> F  </i>
   <i type="logical" name="LSPECTRALGW"> F  </i>
   <i type="logical" name="LSINGLES"> F  </i>
   <i type="logical" name="LFERMIGW"> F  </i>
   <i type="logical" name="ODDONLYGW"> F  </i>
   <i type="logical" name="EVENONLYGW"> F  </i>
   <i type="int" name="NKREDLFX">     1</i>
   <i type="int" name="NKREDLFY">     1</i>
   <i type="int" name="NKREDLFZ">     1</i>
   <i type="int" name="MAXMEM">  2800</i>
   <i type="int" name="TELESCOPE">     0</i>
   <i type="int" name="NTAUPAR">    -1</i>
   <i type="int" name="NOMEGAPAR">    -1</i>
   <i name="DAMP_NEWTON">      0.80000001</i>
   <i name="LAMBDA">      1.00000000</i>
  </separator>
  <separator name="External order field" >
   <i name="OFIELD_KAPPA">      0.00000000</i>
   <v name="OFIELD_K">      0.00000000      0.00000000      0.00000000</v>
   <i name="OFIELD_Q6_NEAR">      0.00000000</i>
   <i name="OFIELD_Q6_FAR">      0.00000000</i>
   <i name="OFIELD_A">      0.00000000</i>
  </separator>
 </parameters>
 <atominfo>
  <atoms>      64 </atoms>
  <types>       2 </types>
  <array name="atoms" >
   <dimension dim="1">ion</dimension>
   <field type="string">element</field>
   <field type="int">atomtype</field>
   <set>
    <rc><c>C </c><c>   1</c></rc>
    <rc><c>C </c><c>   1</c></rc>
    <rc><c>C </c><c>   1</c></rc>
    <rc><c>C </c><c>   1</c></rc>
    <rc><c>C </c><c>   1</c></rc>
    <rc><c>C </c><c>   1</c></rc>
    <rc><c>C </c><c>   1</c></rc>
    <rc><c>C </c><c>   1</c></rc>
    <rc><c>C </c><c>   1</c></rc>
    <rc><c>C </c><c>   1</c></rc>
    <rc><c>C </c><c>   1</c></rc>
    <rc><c>C </c><c>   1</c></rc>
    <rc><c>C </c><c>   1</c></rc>
    <rc><c>C </c><c>   1</c></rc>
    <rc><c>C </c><c>   1</c></rc>
    <rc><c>C </c><c>   1</c></rc>
    <rc><c>C </c><c>   1</c></rc>
    <rc><c>C </c><c>   1</c></rc>
    <rc><c>C </c><c>   1</c></rc>
    <rc><c>C </c><c>   1</c></rc>
    <rc><c>C </c><c>   1</c></rc>
    <rc><c>C </c><c>   1</c></rc>
    <rc><c>C </c><c>   1</c></rc>
    <rc><c>C </c><c>   1</c></rc>
    <rc><c>C </c><c>   1</c></rc>
    <rc><c>C </c><c>   1</c></rc>
    <rc><c>C </c><c>   1</c></rc>
    <rc><c>C </c><c>   1</c></rc>
    <rc><c>C </c><c>   1</c></rc>
    <rc><c>C </c><c>   1</c></rc>
    <rc><c>C </c><c>   1</c></rc>
    <rc><c>C </c><c>   1</c></rc>
    <rc><c>Si</c><c>   2</c></rc>
    <rc><c>Si</c><c>   2</c></rc>
    <rc><c>Si</c><c>   2</c></rc>
    <rc><c>Si</c><c>   2</c></rc>
    <rc><c>Si</c><c>   2</c></rc>
    <rc><c>Si</c><c>   2</c></rc>
    <rc><c>Si</c><c>   2</c></rc>
    <rc><c>Si</c><c>   2</c></rc>
    <rc><c>Si</c><c>   2</c></rc>
    <rc><c>Si</c><c>   2</c></rc>
    <rc><c>Si</c><c>   2</c></rc>
    <rc><c>Si</c><c>   2</c></rc>
    <rc><c>Si</c><c>   2</c></rc>
    <rc><c>Si</c><c>   2</c></rc>
    <rc><c>Si</c><c>   2</c></rc>
    <rc><c>Si</c><c>   2</c></rc>
    <rc><c>Si</c><c>   2</c></rc>
    <rc><c>Si</c><c>   2</c></rc>
    <rc><c>Si</c><c>   2</c></rc>
    <rc><c>Si</c><c>   2</c></rc>
    <rc><c>Si</c><c>   2</c></rc>
    <rc><c>Si</c><c>   2</c></rc>
    <rc><c>Si</c><c>   2</c></rc>
    <rc><c>Si</c><c>   2</c></rc>
    <rc><c>Si</c><c>   2</c></rc>
    <rc><c>Si</c><c>   2</c></rc>
    <rc><c>Si</c><c>   2</c></rc>
    <rc><c>Si</c><c>   2</c></rc>
    <rc><c>Si</c><c>   2</c></rc>
    <rc><c>Si</c><c>   2</c></rc>
    <rc><c>Si</c><c>   2</c></rc>
    <rc><c>Si</c><c>   2</c></rc>
   </set>
  </array>
  <array name="atomtypes" >
   <dimension dim="1">type</dimension>
   <field type="int">atomspertype</field>
   <field type="string">element</field>
   <field>mass</field>
   <field>valence</field>
   <field type="string">pseudopotential</field>
   <set>
    <rc><c>  32</c><c>C </c><c>     12.01100000</c><c>      4.00000000</c><c>  PAW_PBE C 08Apr2002                   </c></rc>
    <rc><c>  32</c><c>Si</c><c>     28.08500000</c><c>      4.00000000</c><c>  PAW_PBE Si 05Jan2001                  </c></rc>
   </set>
  </array>
 </atominfo>
 <structure name="initialpos" >
  <crystal>
   <varray name="basis" >
    <v>       8.74331558       0.00000000       0.00000000 </v>
    <v>       0.00000000       8.74331558       0.00000000 </v>
    <v>       0.00000000       0.00000000       8.74331558 </v>
   </varray>
   <i name="volume">    668.38771987 </i>
   <varray name="rec_basis" >
    <v>       0.11437309       0.00000000       0.00000000 </v>
    <v>       0.00000000       0.11437309       0.00000000 </v>
    <v>       0.00000000       0.00000000       0.11437309 </v>
   </varray>
  </crystal>
  <varray name="positions" >
   <v>       0.12784265       0.12777481       0.12424048 </v>
   <v>       0.12486900       0.37174182       0.37447165 </v>
   <v>       0.37100348       0.12443440       0.37136849 </v>
   <v>       0.37653657       0.37730927       0.12285523 </v>
   <v>       0.12469914       0.12466002       0.62475928 </v>
   <v>       0.12309862       0.37301858       0.87842519 </v>
   <v>       0.37643391       0.12216733       0.87700650 </v>
   <v>       0.37677779       0.37427316       0.62397706 </v>
   <v>       0.12475552       0.62655521       0.12480411 </v>
   <v>       0.12401529       0.87683238       0.37700664 </v>
   <v>       0.37355269       0.62980389       0.37276848 </v>
   <v>       0.37456716       0.87333052       0.12444441 </v>
   <v>       0.12229692       0.62651685       0.62400025 </v>
   <v>       0.12568351       0.87457453       0.87817577 </v>
   <v>       0.37464119       0.62465875       0.87224266 </v>
   <v>       0.37358203       0.87376834       0.62042257 </v>
   <v>       0.62359124       0.12388732       0.12216873 </v>
   <v>       0.62573764       0.37643891       0.37904555 </v>
   <v>       0.87406105       0.12587253       0.37436815 </v>
   <v>       0.87676184       0.37487121       0.12401823 </v>
   <v>       0.62846537       0.12344749       0.62414161 </v>
   <v>       0.62424704       0.37684048       0.87105437 </v>
   <v>       0.87744958       0.12884459       0.87511186 </v>
   <v>       0.87582903       0.37363621       0.62738652 </v>
   <v>       0.62762040       0.62704292       0.12453663 </v>
   <v>       0.62340996       0.87774259       0.37403159 </v>
   <v>       0.87759480       0.62437370       0.37184917 </v>
   <v>       0.87529027       0.87292467       0.12464118 </v>
   <v>       0.62384862       0.62292610       0.62521486 </v>
   <v>       0.62385409       0.88012773       0.87525028 </v>
   <v>       0.87390857       0.62630364       0.87302551 </v>
   <v>       0.87603921       0.87697135       0.62951301 </v>
   <v>       0.99830622       0.99477144       0.99914823 </v>
   <v>       0.00092828       0.24880975       0.25304614 </v>
   <v>       0.25023978       0.99920100       0.25017983 </v>
   <v>       0.24677000       0.24950716       0.00161817 </v>
   <v>       0.99962124       0.99972102       0.49982769 </v>
   <v>       0.99973054       0.24724429       0.75194545 </v>
   <v>       0.24866042       0.00139418       0.75260951 </v>
   <v>       0.25078258       0.24799170       0.50025561 </v>
   <v>       0.99943931       0.49747021       0.99870063 </v>
   <v>       0.99879759       0.75156320       0.25143736 </v>
   <v>       0.24902386       0.50186743       0.25059787 </v>
   <v>       0.25061142       0.75205207       0.00297697 </v>
   <v>       0.00368932       0.49789094       0.49971924 </v>
   <v>       0.00173657       0.74625603       0.75311446 </v>
   <v>       0.24796000       0.50112447       0.75294671 </v>
   <v>       0.24815749       0.74984882       0.50019347 </v>
   <v>       0.50033860       0.99957929       0.00077969 </v>
   <v>       0.50006610       0.25261358       0.24790480 </v>
   <v>       0.74729525       0.99744613       0.25050071 </v>
   <v>       0.75309654       0.25256460       0.00137543 </v>
   <v>       0.49876389       0.99652317       0.50265771 </v>
   <v>       0.49955132       0.25031585       0.74861490 </v>
   <v>       0.74959829       0.99912792       0.74965833 </v>
   <v>       0.75039116       0.25254504       0.49522861 </v>
   <v>       0.49989171       0.50152290       0.00202189 </v>
   <v>       0.49985637       0.75156650       0.25165865 </v>
   <v>       0.75065803       0.49816651       0.24980030 </v>
   <v>       0.75370692       0.75106457       0.99855592 </v>
   <v>       0.49840364       0.49840523       0.50016810 </v>
   <v>       0.49703051       0.74974733       0.74953548 </v>
   <v>       0.74815531       0.49985945       0.74950651 </v>
   <v>       0.75150158       0.75287276       0.49896746 </v>
  </varray>
 </structure>
 <calculation>
  <scstep>
   <time name="dav">    5.22    5.22</time>
   <time name="total">    5.24    5.25</time>
   <energy>
    <i name="alphaZ">    354.85177120 </i>
    <i name="ewald">  -9081.76212401 </i>
    <i name="hartreedc">   -671.59928054 </i>
    <i name="XCdc">    145.84655065 </i>
    <i name="pawpsdc">   6292.66707184 </i>
    <i name="pawaedc">  -5747.90303932 </i>
    <i name="eentropy">      0.00597907 </i>
    <i name="bandstr">   1370.94402026 </i>
    <i name="atom">   8006.17504320 </i>
    <i name="e_fr_energy">    669.22599235 </i>
    <i name="e_wo_entrp">    669.22001329 </i>
    <i name="e_0_energy">    669.22399933 </i>
   </energy>
  </scstep>
  <scstep>
   <time name="dav">    5.61    5.61</time>
   <time name="total">    5.61    5.62</time>
   <energy>
    <i name="e_fr_energy">   -462.74995579 </i>
    <i name="e_wo_entrp">   -462.76722791 </i>
    <i name="e_0_energy">   -462.75571316 </i>
   </energy>
  </scstep>
  <scstep>
   <time name="dav">    5.51    5.51</time>
   <time name="total">    5.51    5.51</time>
   <energy>
    <i name="e_fr_energy">   -537.89861239 </i>
    <i name="e_wo_entrp">   -537.91867686 </i>
    <i name="e_0_energy">   -537.90530055 </i>
   </energy>
  </scstep>
  <scstep>
   <time name="dav">    5.52    5.52</time>
   <time name="total">    5.52    5.52</time>
   <energy>
    <i name="e_fr_energy">   -539.55803904 </i>
    <i name="e_wo_entrp">   -539.57854635 </i>
    <i name="e_0_energy">   -539.56487481 </i>
   </energy>
  </scstep>
  <scstep>
   <time name="dav">    5.39    5.39</time>
   <time name="total">    5.50    5.50</time>
   <energy>
    <i name="e_fr_energy">   -539.60400729 </i>
    <i name="e_wo_entrp">   -539.62444068 </i>
    <i name="e_0_energy">   -539.61081842 </i>
   </energy>
  </scstep>
  <scstep>
   <time name="dav">    5.27    5.27</time>
   <time name="total">    5.43    5.44</time>
   <energy>
    <i name="e_fr_energy">   -482.96025613 </i>
    <i name="e_wo_entrp">   -482.97087890 </i>
    <i name="e_0_energy">   -482.96379705 </i>
   </energy>
  </scstep>
  <scstep>
   <time name="dav">    5.67    5.67</time>
   <time name="total">    5.84    5.84</time>
   <energy>
    <i name="e_fr_energy">   -481.59876111 </i>
    <i name="e_wo_entrp">   -481.60837706 </i>
    <i name="e_0_energy">   -481.60196643 </i>
   </energy>
  </scstep>
  <scstep>
   <time name="dav">    5.29    5.29</time>
   <time name="total">    5.45    5.45</time>
   <energy>
    <i name="e_fr_energy">   -481.37108408 </i>
    <i name="e_wo_entrp">   -481.38088218 </i>
    <i name="e_0_energy">   -481.37435011 </i>
   </energy>
  </scstep>
  <scstep>
   <time name="dav">    5.36    5.36</time>
   <time name="total">    5.52    5.52</time>
   <energy>
    <i name="e_fr_energy">   -481.35472572 </i>
    <i name="e_wo_entrp">   -481.36441946 </i>
    <i name="e_0_energy">   -481.35795696 </i>
   </energy>
  </scstep>
  <scstep>
   <time name="dav">    5.49    5.49</time>
   <time name="total">    5.65    5.65</time>
   <energy>
    <i name="e_fr_energy">   -481.35808379 </i>
    <i name="e_wo_entrp">   -481.36777188 </i>
    <i name="e_0_energy">   -481.36131315 </i>
   </energy>
  </scstep>
  <scstep>
   <time name="dav">    5.11    5.11</time>
   <time name="total">    5.30    5.31</time>
   <energy>
    <i name="e_fr_energy">   -481.35889696 </i>
    <i name="e_wo_entrp">   -481.36858749 </i>
    <i name="e_0_energy">   -481.36212713 </i>
   </energy>
  </scstep>
  <scstep>
   <time name="dav">    5.57    5.57</time>
   <time name="total">    5.73    5.73</time>
   <energy>
    <i name="e_fr_energy">   -481.35890341 </i>
    <i name="e_wo_entrp">   -481.36859218 </i>
    <i name="e_0_energy">   -481.36213300 </i>
   </energy>
  </scstep>
  <scstep>
   <time name="dav">    5.21    5.21</time>
   <time name="total">    5.37    5.37</time>
   <energy>
    <i name="e_fr_energy">   -481.35891076 </i>
    <i name="e_wo_entrp">   -481.36860071 </i>
    <i name="e_0_energy">   -481.36214075 </i>
   </energy>
  </scstep>
  <scstep>
   <time name="dav">    5.22    5.22</time>
   <time name="total">    5.38    5.38</time>
   <energy>
    <i name="e_fr_energy">   -481.35891797 </i>
    <i name="e_wo_entrp">   -481.36860798 </i>
    <i name="e_0_energy">   -481.36214798 </i>
   </energy>
  </scstep>
  <scstep>
   <time name="dav">    5.58    5.58</time>
   <time name="total">    5.75    5.75</time>
   <energy>
    <i name="e_fr_energy">   -481.35891957 </i>
    <i name="e_wo_entrp">   -481.36860936 </i>
    <i name="e_0_energy">   -481.36214950 </i>
   </energy>
  </scstep>
  <scstep>
   <time name="dav">    5.39    5.39</time>
   <time name="total">    5.55    5.55</time>
   <energy>
    <i name="e_fr_energy">   -481.35891941 </i>
    <i name="e_wo_entrp">   -481.36860922 </i>
    <i name="e_0_energy">   -481.36214935 </i>
   </energy>
  </scstep>
  <scstep>
   <time name="dav">    4.52    4.52</time>
   <time name="total">    4.70    4.71</time>
   <energy>
    <i name="e_fr_energy">   -481.35891949 </i>
    <i name="e_wo_entrp">   -481.36860930 </i>
    <i name="e_0_energy">   -481.36214943 </i>
   </energy>
  </scstep>
  <scstep>
   <time name="dav">    3.38    3.38</time>
   <time name="total">    3.55    3.55</time>
   <energy>
    <i name="e_fr_energy">   -481.35891948 </i>
    <i name="e_wo_entrp">   -481.36860928 </i>
    <i name="e_0_energy">   -481.36214941 </i>
   </energy>
  </scstep>
  <scstep>
   <time name="dav">    3.32    3.32</time>
   <time name="total">    3.49    3.49</time>
   <energy>
    <i name="e_fr_energy">   -481.35891946 </i>
    <i name="e_wo_entrp">   -481.36860925 </i>
    <i name="e_0_energy">   -481.36214939 </i>
   </energy>
  </scstep>
  <scstep>
   <time name="dav">    3.31    3.31</time>
   <time name="total">    3.33    3.34</time>
   <energy>
    <i name="alphaZ">    354.85177120 </i>
    <i name="ewald">  -9081.76212401 </i>
    <i name="hartreedc">  -1024.45846958 </i>
    <i name="XCdc">    179.30008375 </i>
    <i name="pawpsdc">  33046.29497870 </i>
    <i name="pawaedc"> -32507.23183580 </i>
    <i name="eentropy">      0.00968980 </i>
    <i name="bandstr">    545.46194328 </i>
    <i name="atom">   8006.17504320 </i>
    <i name="e_fr_energy">   -481.35891945 </i>
    <i name="e_wo_entrp">   -481.36860925 </i>
    <i name="e_0_energy">   -481.36214939 </i>
   </energy>
  </scstep>
  <structure>
   <crystal>
    <varray name="basis" >
     <v>       8.74331558       0.00000000       0.00000000 </v>
     <v>       0.00000000       8.74331558       0.00000000 </v>
     <v>       0.00000000       0.00000000       8.74331558 </v>
    </varray>
    <i name="volume">    668.38771987 </i>
    <varray name="rec_basis" >
     <v>       0.11437309       0.00000000       0.00000000 </v>
     <v>       0.00000000       0.11437309       0.00000000 </v>
     <v>       0.00000000       0.00000000       0.11437309 </v>
    </varray>
   </crystal>
   <varray name="positions" >
    <v>       0.12784265       0.12777481       0.12424048 </v>
    <v>       0.12486900       0.37174182       0.37447165 </v>
    <v>       0.37100348       0.12443440       0.37136849 </v>
    <v>       0.37653657       0.37730927       0.12285523 </v>
    <v>       0.12469914       0.12466002       0.62475928 </v>
    <v>       0.12309862       0.37301858       0.87842519 </v>
    <v>       0.37643391       0.12216733       0.87700650 </v>
    <v>       0.37677779       0.37427316       0.62397706 </v>
    <v>       0.12475552       0.62655521       0.12480411 </v>
    <v>       0.12401529       0.87683238       0.37700664 </v>
    <v>       0.37355269       0.62980389       0.37276848 </v>
    <v>       0.37456716       0.87333052       0.12444441 </v>
    <v>       0.12229692       0.62651685       0.62400025 </v>
    <v>       0.12568351       0.87457453       0.87817577 </v>
    <v>       0.37464119       0.62465875       0.87224266 </v>
    <v>       0.37358203       0.87376834       0.62042257 </v>
    <v>       0.62359124       0.12388732       0.12216873 </v>
    <v>       0.62573764       0.37643891       0.37904555 </v>
    <v>       0.87406105       0.12587253       0.37436815 </v>
    <v>       0.87676184       0.37487121       0.12401823 </v>
    <v>       0.62846537       0.12344749       0.62414161 </v>
    <v>       0.62424704       0.37684048       0.87105437 </v>
    <v>       0.87744958       0.12884459       0.87511186 </v>
    <v>       0.87582903       0.37363621       0.62738652 </v>
    <v>       0.62762040       0.62704292       0.12453663 </v>
    <v>       0.62340996       0.87774259       0.37403159 </v>
    <v>       0.87759480       0.62437370       0.37184917 </v>
    <v>       0.87529027       0.87292467       0.12464118 </v>
    <v>       0.62384862       0.62292610       0.62521486 </v>
    <v>       0.62385409       0.88012773       0.87525028 </v>
    <v>       0.87390857       0.62630364       0.87302551 </v>
    <v>       0.87603921       0.87697135       0.62951301 </v>
    <v>       0.99830622       0.99477144       0.99914823 </v>
    <v>       0.00092828       0.24880975       0.25304614 </v>
    <v>       0.25023978       0.99920100       0.25017983 </v>
    <v>       0.24677000       0.24950716       0.00161817 </v>
    <v>       0.99962124       0.99972102       0.49982769 </v>
    <v>       0.99973054       0.24724429       0.75194545 </v>
    <v>       0.24866042       0.00139418       0.75260951 </v>
    <v>       0.25078258       0.24799170       0.50025561 </v>
    <v>       0.99943931       0.49747021       0.99870063 </v>
    <v>       0.99879759       0.75156320       0.25143736 </v>
    <v>       0.24902386       0.50186743       0.25059787 </v>
    <v>       0.25061142       0.75205207       0.00297697 </v>
    <v>       0.00368932       0.49789094       0.49971924 </v>
    <v>       0.00173657       0.74625603       0.75311446 </v>
    <v>       0.24796000       0.50112447       0.75294671 </v>
    <v>       0.24815749       0.74984882       0.50019347 </v>
    <v>       0.50033860       0.99957929       0.00077969 </v>
    <v>       0.50006610       0.25261358       0.24790480 </v>
    <v>       0.74729525       0.99744613       0.25050071 </v>
    <v>       0.75309654       0.25256460       0.00137543 </v>
    <v>       0.49876389       0.99652317       0.50265771 </v>
    <v>       0.49955132       0.25031585       0.74861490 </v>
    <v>       0.74959829       0.99912792       0.74965833 </v>
    <v>       0.75039116       0.25254504       0.49522861 </v>
    <v>       0.49989171       0.50152290       0.00202189 </v>
    <v>       0.49985637       0.75156650       0.25165865 </v>
    <v>       0.75065803       0.49816651       0.24980030 </v>
    <v>       0.75370692       0.75106457       0.99855592 </v>
    <v>       0.49840364       0.49840523       0.50016810 </v>
    <v>       0.49703051       0.74974733       0.74953548 </v>
    <v>       0.74815531       0.49985945       0.74950651 </v>
    <v>       0.75150158       0.75287276       0.49896746 </v>
   </varray>
  </structure>
  <varray name="forces" >
   <v>      -0.92110411      -1.07183298       0.42557358 </v>
   <v>       0.42026586       0.59417782       0.27600286 </v>
   <v>       1.07179436       0.09569106       0.67153092 </v>
   <v>      -0.48598603      -0.09200381       0.44178234 </v>
   <v>       0.07400478       0.02070045       0.22934381 </v>
   <v>       0.33139892       0.25520377      -0.72967490 </v>
   <v>      -0.46051758       0.74158929      -0.32275015 </v>
   <v>      -0.85654489       0.05841798       0.20316319 </v>
   <v>      -0.21065778      -0.22567062       0.01496551 </v>
   <v>      -0.06610934      -0.27241107      -0.41781292 </v>
   <v>       0.07356335      -0.96193189       0.57989404 </v>
   <v>       0.32413613       0.39831093       0.37309442 </v>
   <v>       0.65767939      -0.48887599       0.27229160 </v>
   <v>      -0.02091703      -0.26950562      -0.50293767 </v>
   <v>      -0.20119192       0.31834642       0.84667842 </v>
   <v>      -0.26512137       0.05752049       1.16320550 </v>
   <v>       0.48533288       0.47051091       0.59961004 </v>
   <v>      -0.35455856      -0.02853211      -1.17919735 </v>
   <v>       0.02474102      -0.42126034      -0.16995989 </v>
   <v>      -0.15382322      -0.04357543       0.63065431 </v>
   <v>      -0.68281989       0.32271450      -0.25961986 </v>
   <v>       0.05508981      -0.26273720       1.01827957 </v>
   <v>      -0.56119598      -1.19475183       0.34142763 </v>
   <v>       0.05429084       0.22836197      -0.53669813 </v>
   <v>      -0.28233454      -0.16620216       0.18435585 </v>
   <v>       0.19059828      -0.58610524       0.37679464 </v>
   <v>      -0.34997896      -0.02108070       0.72387843 </v>
   <v>      -0.16412200       0.40400152       0.30275105 </v>
   <v>       0.09496778       0.68430939      -0.35899725 </v>
   <v>       0.18072061      -1.14523974      -0.08960016 </v>
   <v>       0.20460186      -0.61975955       0.34001131 </v>
   <v>       0.15725369      -0.57454817      -0.60810884 </v>
   <v>       0.32618822       1.42867944       0.31969271 </v>
   <v>      -0.05515440      -0.11442495      -0.87283643 </v>
   <v>      -0.26614814       0.12557757      -0.32076558 </v>
   <v>       1.05337873       0.09978530      -0.30244898 </v>
   <v>      -0.17011143       0.26442231       0.39256998 </v>
   <v>       0.18271472       0.50696171      -0.49484188 </v>
   <v>       0.27273223      -0.35731912      -0.45329384 </v>
   <v>      -0.05828845       0.07865333      -0.08182678 </v>
   <v>      -0.01160037       0.81688273       0.34232220 </v>
   <v>       0.48166217      -0.29092122      -0.27715987 </v>
   <v>       0.10828153      -0.20805582      -0.31479619 </v>
   <v>      -0.00954814      -0.66955491      -0.51830884 </v>
   <v>      -0.86296042       0.08301968       0.09982426 </v>
   <v>      -0.28702518       0.87150171      -0.43680964 </v>
   <v>       0.13844961      -0.46975281      -0.55408771 </v>
   <v>      -0.02610388       0.15821730      -0.17698778 </v>
   <v>      -0.22868504       0.04178051      -0.04809809 </v>
   <v>      -0.07726574      -0.52409114       0.29605425 </v>
   <v>       0.38228342       0.76835262      -0.47847535 </v>
   <v>      -0.71366206      -0.41838173      -0.63626066 </v>
   <v>       0.12194228       1.15382840      -0.66313764 </v>
   <v>       0.38025280      -0.47966690       0.22548367 </v>
   <v>       0.22259445       0.74901661       0.33077642 </v>
   <v>       0.18686073      -0.61013200       1.33711925 </v>
   <v>       0.32335317       0.10830348      -0.77663385 </v>
   <v>       0.21346485      -0.15927310      -0.58203108 </v>
   <v>       0.05482622       0.52079138      -0.06373589 </v>
   <v>      -0.90052502      -0.03361891      -0.05384330 </v>
   <v>       0.05745115       0.77634442      -0.03266288 </v>
   <v>       0.58981659       0.19115767      -0.13866704 </v>
   <v>       0.32445080       0.03590539      -0.25625676 </v>
   <v>      -0.11708175      -0.64782102       0.35019142 </v>
  </varray>
  <varray name="stress" >
   <v>       3.30224814       5.12365771      -4.16771164 </v>
   <v>       5.12365776       2.61668386      -1.70974903 </v>
   <v>      -4.16771166      -1.70974901       2.83852773 </v>
  </varray>
  <energy>
   <i name="e_fr_energy">   -481.35891945 </i>
   <i name="e_wo_entrp">   -481.36860925 </i>
   <i name="e_0_energy">   -481.36214939 </i>
  </energy>
  <time name="totalsc">  111.43  111.47</time>
  <eigenvalues>
   <array>
    <dimension dim="1">band</dimension>
    <dimension dim="2">kpoint</dimension>
    <dimension dim="3">spin</dimension>
    <field>eigene</field>
    <field>occ</field>
    <set>
     <set comment="spin 1">
      <set comment="kpoint 1">
       <r>   -7.3382    1.0000 </r>
       <r>   -5.8076    1.0000 </r>
       <r>   -5.8024    1.0000 </r>
       <r>   -5.7709    1.0000 </r>
       <r>   -5.7351    1.0000 </r>
       <r>   -5.7094    1.0000 </r>
       <r>   -5.7021    1.0000 </r>
       <r>   -4.5081    1.0000 </r>
       <r>   -4.4134    1.0000 </r>
       <r>   -4.4037    1.0000 </r>
       <r>   -4.3670    1.0000 </r>
       <r>   -4.3502    1.0000 </r>
       <r>   -4.3451    1.0000 </r>
       <r>   -4.3325    1.0000 </r>
       <r>   -4.3138    1.0000 </r>
       <r>   -4.3054    1.0000 </r>
       <r>   -4.2725    1.0000 </r>
       <r>   -4.2634    1.0000 </r>
       <r>   -4.1978    1.0000 </r>
       <r>   -3.8612    1.0000 </r>
       <r>   -3.8192    1.0000 </r>
       <r>   -3.7783    1.0000 </r>
       <r>   -3.7234    1.0000 </r>
       <r>   -2.4200    1.0000 </r>
       <r>   -2.3704    1.0000 </r>
       <r>   -2.3246    1.0000 </r>
       <r>   -2.1970    1.0000 </r>
       <r>   -2.1797    1.0000 </r>
       <r>   -2.1616    1.0000 </r>
       <r>   -2.1149    1.0000 </r>
       <r>   -2.0689    1.0000 </r>
       <r>   -2.0563    1.0000 </r>
       <r>   -0.5504    1.0000 </r>
       <r>   -0.4999    1.0000 </r>
       <r>   -0.4694    1.0000 </r>
       <r>   -0.4226    1.0000 </r>
       <r>    0.2269    1.0000 </r>
       <r>    0.2305    1.0000 </r>
       <r>    0.2379    1.0000 </r>
       <r>    0.9632    1.0000 </r>
       <r>    0.9736    1.0000 </r>
       <r>    0.9859    1.0000 </r>
       <r>    0.9914    1.0000 </r>
       <r>    1.0044    1.0000 </r>
       <r>    1.0194    1.0000 </r>
       <r>    1.9764    1.0000 </r>
       <r>    1.9892    1.0000 </r>
       <r>    2.0237    1.0000 </r>
       <r>    2.0310    1.0000 </r>
       <r>    2.0479    1.0000 </r>
       <r>    2.0617    1.0000 </r>
       <r>    2.0701    1.0000 </r>
       <r>    2.1006    1.0000 </r>
       <r>    2.1175    1.0000 </r>
       <r>    2.1478    1.0000 </r>
       <r>    2.1559    1.0000 </r>
       <r>    2.1861    1.0000 </r>
       <r>    3.0072    1.0000 </r>
       <r>    3.0222    1.0000 </r>
       <r>    3.0471    1.0000 </r>
       <r>    3.0558    1.0000 </r>
       <r>    3.0732    1.0000 </r>
       <r>    3.0812    1.0000 </r>
       <r>    3.3174    1.0000 </r>
       <r>    3.3213    1.0000 </r>
       <r>    3.3385    1.0000 </r>
       <r>    3.3526    1.0000 </r>
       <r>    3.3671    1.0000 </r>
       <r>    3.3818    1.0000 </r>
       <r>    3.5942    1.0000 </r>
       <r>    3.6298    1.0000 </r>
       <r>    3.6390    1.0000 </r>
       <r>    3.6622    1.0000 </r>
       <r>    3.6659    1.0000 </r>
       <r>    3.6807    1.0000 </r>
       <r>    3.6939    1.0000 </r>
       <r>    3.7166    1.0000 </r>
       <r>    3.7260    1.0000 </r>
       <r>    3.7533    1.0000 </r>
       <r>    3.7708    1.0000 </r>
       <r>    3.7879    1.0000 </r>
       <r>    4.5702    1.0000 </r>
       <r>    4.6222    1.0000 </r>
       <r>    4.6471    1.0000 </r>
       <r>    4.6580    1.0000 </r>
       <r>    4.6679    1.0000 </r>
       <r>    4.7068    1.0000 </r>
       <r>    4.8014    1.0000 </r>
       <r>    4.8246    1.0000 </r>
       <r>    4.8315    1.0000 </r>
       <r>    4.8495    1.0000 </r>
       <r>    4.8676    1.0000 </r>
       <r>    4.8704    1.0000 </r>
       <r>    5.9870    1.0000 </r>
       <r>    5.9959    1.0000 </r>
       <r>    6.0142    1.0000 </r>
       <r>    6.0222    1.0000 </r>
       <r>    6.0509    1.0000 </r>
       <r>    6.0749    1.0000 </r>
       <r>    6.0822    1.0000 </r>
       <r>    6.1074    1.0000 </r>
       <r>    6.1266    1.0000 </r>
       <r>    6.1339    1.0000 </r>
       <r>    6.1646    1.0000 </r>
       <r>    6.1692    1.0000 </r>
       <r>    6.7213    1.0000 </r>
       <r>    6.7362    1.0000 </r>
       <r>    6.7424    1.0000 </r>
       <r>    6.7577    1.0000 </r>
       <r>    6.7802    1.0000 </r>
       <r>    6.7887    1.0000 </r>
       <r>    6.8095    1.0000 </r>
       <r>    6.8308    1.0000 </r>
       <r>    6.8560    1.0000 </r>
       <r>    6.8619    1.0000 </r>
       <r>    6.8902    1.0000 </r>
       <r>    6.9032    1.0000 </r>
       <r>    6.9094    1.0000 </r>
       <r>    6.9335    1.0000 </r>
       <r>    6.9422    1.0000 </r>
       <r>    6.9855    1.0000 </r>
       <r>    7.0076    1.0000 </r>
       <r>    7.0175    1.0000 </r>
       <r>    7.0530    1.0000 </r>
       <r>    7.0729    1.0000 </r>
       <r>    7.9649    1.0188 </r>
       <r>    8.0319    0.9257 </r>
       <r>    8.0618    0.8494 </r>
       <r>    9.2924   -0.0000 </r>
       <r>    9.3646   -0.0000 </r>
       <r>    9.4334   -0.0000 </r>
       <r>   11.9751   -0.0000 </r>
       <r>   11.9804   -0.0000 </r>
       <r>   12.0107   -0.0000 </r>
       <r>   12.0140   -0.0000 </r>
       <r>   12.0385   -0.0000 </r>
       <r>   12.0770   -0.0000 </r>
       <r>   12.2627   -0.0000 </r>
       <r>   12.2869   -0.0000 </r>
       <r>   12.2948   -0.0000 </r>
       <r>   13.0873   -0.0000 </r>
       <r>   13.1018   -0.0000 </r>
       <r>   13.1527   -0.0000 </r>
       <r>   13.1907   -0.0000 </r>
       <r>   13.2063   -0.0000 </r>
       <r>   13.2302   -0.0000 </r>
       <r>   13.3005   -0.0000 </r>
       <r>   13.3109   -0.0000 </r>
       <r>   13.3267   -0.0000 </r>
       <r>   13.3446   -0.0000 </r>
       <r>   13.4084   -0.0000 </r>
       <r>   13.4538   -0.0000 </r>
       <r>   13.4619   -0.0000 </r>
       <r>   13.4704   -0.0000 </r>
       <r>   13.4731   -0.0000 </r>
       <r>   13.4860   -0.0000 </r>
       <r>   13.5104   -0.0000 </r>
       <r>   13.5216   -0.0000 </r>
       <r>   13.5284   -0.0000 </r>
       <r>   13.5601   -0.0000 </r>
       <r>   13.5984   -0.0000 </r>
       <r>   13.6093   -0.0000 </r>
       <r>   14.1092    0.0000 </r>
       <r>   14.2128    0.0000 </r>
       <r>   14.2644    0.0000 </r>
       <r>   14.2729    0.0000 </r>
       <r>   14.2982    0.0000 </r>
       <r>   14.3617    0.0000 </r>
      </set>
      <set comment="kpoint 2">
       <r>   -7.1596    1.0000 </r>
       <r>   -6.6234    1.0000 </r>
       <r>   -5.6415    1.0000 </r>
       <r>   -5.6178    1.0000 </r>
       <r>   -5.5681    1.0000 </r>
       <r>   -5.5428    1.0000 </r>
       <r>   -5.1569    1.0000 </r>
       <r>   -5.1244    1.0000 </r>
       <r>   -5.0800    1.0000 </r>
       <r>   -5.0482    1.0000 </r>
       <r>   -4.5849    1.0000 </r>
       <r>   -4.3178    1.0000 </r>
       <r>   -4.2416    1.0000 </r>
       <r>   -4.2176    1.0000 </r>
       <r>   -4.1588    1.0000 </r>
       <r>   -4.0412    1.0000 </r>
       <r>   -3.9810    1.0000 </r>
       <r>   -3.9440    1.0000 </r>
       <r>   -3.8783    1.0000 </r>
       <r>   -3.4353    1.0000 </r>
       <r>   -3.4209    1.0000 </r>
       <r>   -3.3848    1.0000 </r>
       <r>   -3.3379    1.0000 </r>
       <r>   -3.2217    1.0000 </r>
       <r>   -2.5623    1.0000 </r>
       <r>   -2.5458    1.0000 </r>
       <r>   -2.5095    1.0000 </r>
       <r>   -2.4605    1.0000 </r>
       <r>   -2.3170    1.0000 </r>
       <r>   -2.2978    1.0000 </r>
       <r>   -2.1922    1.0000 </r>
       <r>   -2.1615    1.0000 </r>
       <r>   -0.0942    1.0000 </r>
       <r>   -0.0316    1.0000 </r>
       <r>   -0.0073    1.0000 </r>
       <r>    0.0467    1.0000 </r>
       <r>    0.3647    1.0000 </r>
       <r>    0.3747    1.0000 </r>
       <r>    0.7243    1.0000 </r>
       <r>    0.7367    1.0000 </r>
       <r>    0.9966    1.0000 </r>
       <r>    1.0243    1.0000 </r>
       <r>    1.0327    1.0000 </r>
       <r>    1.0642    1.0000 </r>
       <r>    1.0836    1.0000 </r>
       <r>    1.1033    1.0000 </r>
       <r>    1.1277    1.0000 </r>
       <r>    1.1734    1.0000 </r>
       <r>    1.2399    1.0000 </r>
       <r>    1.3780    1.0000 </r>
       <r>    1.4028    1.0000 </r>
       <r>    1.4287    1.0000 </r>
       <r>    1.4554    1.0000 </r>
       <r>    2.6844    1.0000 </r>
       <r>    2.6929    1.0000 </r>
       <r>    2.7215    1.0000 </r>
       <r>    2.7307    1.0000 </r>
       <r>    2.9128    1.0000 </r>
       <r>    2.9339    1.0000 </r>
       <r>    2.9478    1.0000 </r>
       <r>    2.9695    1.0000 </r>
       <r>    3.0014    1.0000 </r>
       <r>    3.0152    1.0000 </r>
       <r>    3.0243    1.0000 </r>
       <r>    3.0501    1.0000 </r>
       <r>    3.0630    1.0000 </r>
       <r>    3.5108    1.0000 </r>
       <r>    3.5221    1.0000 </r>
       <r>    3.6467    1.0000 </r>
       <r>    3.6599    1.0000 </r>
       <r>    3.9958    1.0000 </r>
       <r>    4.0090    1.0000 </r>
       <r>    4.0556    1.0000 </r>
       <r>    4.0672    1.0000 </r>
       <r>    4.3295    1.0000 </r>
       <r>    4.3551    1.0000 </r>
       <r>    4.3859    1.0000 </r>
       <r>    4.4065    1.0000 </r>
       <r>    4.4143    1.0000 </r>
       <r>    4.4356    1.0000 </r>
       <r>    4.4634    1.0000 </r>
       <r>    4.4832    1.0000 </r>
       <r>    4.5907    1.0000 </r>
       <r>    4.6290    1.0000 </r>
       <r>    4.6760    1.0000 </r>
       <r>    4.6880    1.0000 </r>
       <r>    4.7543    1.0000 </r>
       <r>    4.8025    1.0000 </r>
       <r>    4.8479    1.0000 </r>
       <r>    4.8945    1.0000 </r>
       <r>    4.9794    1.0000 </r>
       <r>    4.9908    1.0000 </r>
       <r>    5.4013    1.0000 </r>
       <r>    5.4175    1.0000 </r>
       <r>    5.5599    1.0000 </r>
       <r>    5.5878    1.0000 </r>
       <r>    5.6383    1.0000 </r>
       <r>    5.6683    1.0000 </r>
       <r>    5.8558    1.0000 </r>
       <r>    5.8693    1.0000 </r>
       <r>    5.9132    1.0000 </r>
       <r>    5.9329    1.0000 </r>
       <r>    6.1879    1.0000 </r>
       <r>    6.2014    1.0000 </r>
       <r>    6.2615    1.0000 </r>
       <r>    6.2919    1.0000 </r>
       <r>    6.3455    1.0000 </r>
       <r>    6.4335    1.0000 </r>
       <r>    6.4600    1.0000 </r>
       <r>    6.5141    1.0000 </r>
       <r>    6.5297    1.0000 </r>
       <r>    6.7884    1.0000 </r>
       <r>    6.8003    1.0000 </r>
       <r>    6.8300    1.0000 </r>
       <r>    6.8622    1.0000 </r>
       <r>    6.8706    1.0000 </r>
       <r>    6.8848    1.0000 </r>
       <r>    6.8941    1.0000 </r>
       <r>    6.9117    1.0000 </r>
       <r>    6.9323    1.0000 </r>
       <r>    6.9419    1.0000 </r>
       <r>    6.9576    1.0000 </r>
       <r>    6.9743    1.0000 </r>
       <r>    7.0032    1.0000 </r>
       <r>    7.0257    1.0000 </r>
       <r>    7.4635    1.0000 </r>
       <r>    7.6745    1.0018 </r>
       <r>    7.6895    1.0024 </r>
       <r>    9.6769   -0.0000 </r>
       <r>   10.2024   -0.0000 </r>
       <r>   10.2089   -0.0000 </r>
       <r>   10.6361   -0.0000 </r>
       <r>   11.9648   -0.0000 </r>
       <r>   11.9763   -0.0000 </r>
       <r>   12.4847   -0.0000 </r>
       <r>   12.6035   -0.0000 </r>
       <r>   12.6392   -0.0000 </r>
       <r>   12.6469   -0.0000 </r>
       <r>   12.7107   -0.0000 </r>
       <r>   12.9030   -0.0000 </r>
       <r>   12.9459   -0.0000 </r>
       <r>   12.9952   -0.0000 </r>
       <r>   13.0136   -0.0000 </r>
       <r>   13.0348   -0.0000 </r>
       <r>   13.0499   -0.0000 </r>
       <r>   13.0745   -0.0000 </r>
       <r>   13.1040   -0.0000 </r>
       <r>   13.1432   -0.0000 </r>
       <r>   13.1764   -0.0000 </r>
       <r>   13.2153   -0.0000 </r>
       <r>   13.4956   -0.0000 </r>
       <r>   13.5695   -0.0000 </r>
       <r>   13.6049   -0.0000 </r>
       <r>   13.6146    0.0000 </r>
       <r>   13.6576    0.0000 </r>
       <r>   13.6851    0.0000 </r>
       <r>   13.7122    0.0000 </r>
       <r>   13.7210    0.0000 </r>
       <r>   13.7401    0.0000 </r>
       <r>   13.9118    0.0000 </r>
       <r>   13.9669    0.0000 </r>
       <r>   13.9828    0.0000 </r>
       <r>   14.0308    0.0000 </r>
       <r>   14.4682    0.0000 </r>
       <r>   14.8134    0.0000 </r>
       <r>   14.8302    0.0000 </r>
       <r>   14.8573    0.0000 </r>
       <r>   14.8987    0.0000 </r>
      </set>
      <set comment="kpoint 3">
       <r>   -7.1593    1.0000 </r>
       <r>   -6.6250    1.0000 </r>
       <r>   -5.6398    1.0000 </r>
       <r>   -5.6063    1.0000 </r>
       <r>   -5.5707    1.0000 </r>
       <r>   -5.5459    1.0000 </r>
       <r>   -5.1553    1.0000 </r>
       <r>   -5.1203    1.0000 </r>
       <r>   -5.0867    1.0000 </r>
       <r>   -5.0593    1.0000 </r>
       <r>   -4.5877    1.0000 </r>
       <r>   -4.2867    1.0000 </r>
       <r>   -4.2492    1.0000 </r>
       <r>   -4.2192    1.0000 </r>
       <r>   -4.1719    1.0000 </r>
       <r>   -4.0289    1.0000 </r>
       <r>   -3.9802    1.0000 </r>
       <r>   -3.9456    1.0000 </r>
       <r>   -3.9012    1.0000 </r>
       <r>   -3.4366    1.0000 </r>
       <r>   -3.4130    1.0000 </r>
       <r>   -3.3703    1.0000 </r>
       <r>   -3.3361    1.0000 </r>
       <r>   -3.2289    1.0000 </r>
       <r>   -2.5719    1.0000 </r>
       <r>   -2.5458    1.0000 </r>
       <r>   -2.5056    1.0000 </r>
       <r>   -2.4506    1.0000 </r>
       <r>   -2.3422    1.0000 </r>
       <r>   -2.2667    1.0000 </r>
       <r>   -2.2294    1.0000 </r>
       <r>   -2.1391    1.0000 </r>
       <r>   -0.0820    1.0000 </r>
       <r>   -0.0335    1.0000 </r>
       <r>   -0.0119    1.0000 </r>
       <r>    0.0362    1.0000 </r>
       <r>    0.3654    1.0000 </r>
       <r>    0.3717    1.0000 </r>
       <r>    0.7220    1.0000 </r>
       <r>    0.7360    1.0000 </r>
       <r>    0.9986    1.0000 </r>
       <r>    1.0305    1.0000 </r>
       <r>    1.0463    1.0000 </r>
       <r>    1.0603    1.0000 </r>
       <r>    1.0984    1.0000 </r>
       <r>    1.1075    1.0000 </r>
       <r>    1.1314    1.0000 </r>
       <r>    1.1671    1.0000 </r>
       <r>    1.2539    1.0000 </r>
       <r>    1.3596    1.0000 </r>
       <r>    1.3924    1.0000 </r>
       <r>    1.4261    1.0000 </r>
       <r>    1.4518    1.0000 </r>
       <r>    2.6877    1.0000 </r>
       <r>    2.6954    1.0000 </r>
       <r>    2.7185    1.0000 </r>
       <r>    2.7334    1.0000 </r>
       <r>    2.9024    1.0000 </r>
       <r>    2.9230    1.0000 </r>
       <r>    2.9371    1.0000 </r>
       <r>    2.9574    1.0000 </r>
       <r>    2.9838    1.0000 </r>
       <r>    3.0096    1.0000 </r>
       <r>    3.0286    1.0000 </r>
       <r>    3.0611    1.0000 </r>
       <r>    3.0879    1.0000 </r>
       <r>    3.5234    1.0000 </r>
       <r>    3.5311    1.0000 </r>
       <r>    3.6466    1.0000 </r>
       <r>    3.6608    1.0000 </r>
       <r>    3.9630    1.0000 </r>
       <r>    4.0178    1.0000 </r>
       <r>    4.0343    1.0000 </r>
       <r>    4.0833    1.0000 </r>
       <r>    4.3406    1.0000 </r>
       <r>    4.3587    1.0000 </r>
       <r>    4.3845    1.0000 </r>
       <r>    4.3925    1.0000 </r>
       <r>    4.4317    1.0000 </r>
       <r>    4.4351    1.0000 </r>
       <r>    4.4612    1.0000 </r>
       <r>    4.4793    1.0000 </r>
       <r>    4.6213    1.0000 </r>
       <r>    4.6495    1.0000 </r>
       <r>    4.6621    1.0000 </r>
       <r>    4.6834    1.0000 </r>
       <r>    4.7824    1.0000 </r>
       <r>    4.8141    1.0000 </r>
       <r>    4.8335    1.0000 </r>
       <r>    4.8577    1.0000 </r>
       <r>    4.9638    1.0000 </r>
       <r>    5.0033    1.0000 </r>
       <r>    5.3883    1.0000 </r>
       <r>    5.4218    1.0000 </r>
       <r>    5.5722    1.0000 </r>
       <r>    5.6228    1.0000 </r>
       <r>    5.6311    1.0000 </r>
       <r>    5.6491    1.0000 </r>
       <r>    5.8583    1.0000 </r>
       <r>    5.8672    1.0000 </r>
       <r>    5.8984    1.0000 </r>
       <r>    5.9388    1.0000 </r>
       <r>    6.1826    1.0000 </r>
       <r>    6.2339    1.0000 </r>
       <r>    6.2865    1.0000 </r>
       <r>    6.2936    1.0000 </r>
       <r>    6.3246    1.0000 </r>
       <r>    6.4275    1.0000 </r>
       <r>    6.4689    1.0000 </r>
       <r>    6.4985    1.0000 </r>
       <r>    6.5455    1.0000 </r>
       <r>    6.7460    1.0000 </r>
       <r>    6.7876    1.0000 </r>
       <r>    6.8131    1.0000 </r>
       <r>    6.8381    1.0000 </r>
       <r>    6.8633    1.0000 </r>
       <r>    6.8670    1.0000 </r>
       <r>    6.9020    1.0000 </r>
       <r>    6.9032    1.0000 </r>
       <r>    6.9294    1.0000 </r>
       <r>    6.9437    1.0000 </r>
       <r>    6.9575    1.0000 </r>
       <r>    6.9891    1.0000 </r>
       <r>    7.0188    1.0000 </r>
       <r>    7.0684    1.0000 </r>
       <r>    7.4618    1.0000 </r>
       <r>    7.6627    1.0014 </r>
       <r>    7.7087    1.0036 </r>
       <r>    9.6826   -0.0000 </r>
       <r>   10.1547   -0.0000 </r>
       <r>   10.2596   -0.0000 </r>
       <r>   10.6267   -0.0000 </r>
       <r>   11.9253   -0.0000 </r>
       <r>   12.0195   -0.0000 </r>
       <r>   12.4844   -0.0000 </r>
       <r>   12.6103   -0.0000 </r>
       <r>   12.6478   -0.0000 </r>
       <r>   12.6571   -0.0000 </r>
       <r>   12.6943   -0.0000 </r>
       <r>   12.9353   -0.0000 </r>
       <r>   12.9570   -0.0000 </r>
       <r>   12.9785   -0.0000 </r>
       <r>   12.9960   -0.0000 </r>
       <r>   13.0223   -0.0000 </r>
       <r>   13.0613   -0.0000 </r>
       <r>   13.0735   -0.0000 </r>
       <r>   13.0996   -0.0000 </r>
       <r>   13.1161   -0.0000 </r>
       <r>   13.1704   -0.0000 </r>
       <r>   13.1865   -0.0000 </r>
       <r>   13.4989   -0.0000 </r>
       <r>   13.6183    0.0000 </r>
       <r>   13.6223    0.0000 </r>
       <r>   13.6428    0.0000 </r>
       <r>   13.6709    0.0000 </r>
       <r>   13.6857    0.0000 </r>
       <r>   13.6911    0.0000 </r>
       <r>   13.7031    0.0000 </r>
       <r>   13.7190    0.0000 </r>
       <r>   13.9371    0.0000 </r>
       <r>   13.9548    0.0000 </r>
       <r>   13.9884    0.0000 </r>
       <r>   14.0205    0.0000 </r>
       <r>   14.4796    0.0000 </r>
       <r>   14.8112    0.0000 </r>
       <r>   14.8331    0.0000 </r>
       <r>   14.8567    0.0000 </r>
       <r>   14.8989    0.0000 </r>
      </set>
      <set comment="kpoint 4">
       <r>   -7.1592    1.0000 </r>
       <r>   -6.6247    1.0000 </r>
       <r>   -5.6451    1.0000 </r>
       <r>   -5.5933    1.0000 </r>
       <r>   -5.5875    1.0000 </r>
       <r>   -5.5416    1.0000 </r>
       <r>   -5.1542    1.0000 </r>
       <r>   -5.1072    1.0000 </r>
       <r>   -5.0983    1.0000 </r>
       <r>   -5.0540    1.0000 </r>
       <r>   -4.5878    1.0000 </r>
       <r>   -4.3092    1.0000 </r>
       <r>   -4.2728    1.0000 </r>
       <r>   -4.1924    1.0000 </r>
       <r>   -4.1598    1.0000 </r>
       <r>   -4.0246    1.0000 </r>
       <r>   -3.9826    1.0000 </r>
       <r>   -3.9387    1.0000 </r>
       <r>   -3.8915    1.0000 </r>
       <r>   -3.4369    1.0000 </r>
       <r>   -3.4074    1.0000 </r>
       <r>   -3.3975    1.0000 </r>
       <r>   -3.3383    1.0000 </r>
       <r>   -3.2269    1.0000 </r>
       <r>   -2.5598    1.0000 </r>
       <r>   -2.5289    1.0000 </r>
       <r>   -2.5150    1.0000 </r>
       <r>   -2.4670    1.0000 </r>
       <r>   -2.3325    1.0000 </r>
       <r>   -2.2859    1.0000 </r>
       <r>   -2.2013    1.0000 </r>
       <r>   -2.1545    1.0000 </r>
       <r>   -0.0875    1.0000 </r>
       <r>   -0.0418    1.0000 </r>
       <r>   -0.0040    1.0000 </r>
       <r>    0.0438    1.0000 </r>
       <r>    0.3708    1.0000 </r>
       <r>    0.3746    1.0000 </r>
       <r>    0.7184    1.0000 </r>
       <r>    0.7341    1.0000 </r>
       <r>    1.0047    1.0000 </r>
       <r>    1.0238    1.0000 </r>
       <r>    1.0412    1.0000 </r>
       <r>    1.0552    1.0000 </r>
       <r>    1.0764    1.0000 </r>
       <r>    1.1048    1.0000 </r>
       <r>    1.1562    1.0000 </r>
       <r>    1.1740    1.0000 </r>
       <r>    1.2377    1.0000 </r>
       <r>    1.3710    1.0000 </r>
       <r>    1.4010    1.0000 </r>
       <r>    1.4213    1.0000 </r>
       <r>    1.4488    1.0000 </r>
       <r>    2.6833    1.0000 </r>
       <r>    2.7022    1.0000 </r>
       <r>    2.7148    1.0000 </r>
       <r>    2.7334    1.0000 </r>
       <r>    2.9138    1.0000 </r>
       <r>    2.9405    1.0000 </r>
       <r>    2.9505    1.0000 </r>
       <r>    2.9710    1.0000 </r>
       <r>    2.9838    1.0000 </r>
       <r>    3.0137    1.0000 </r>
       <r>    3.0264    1.0000 </r>
       <r>    3.0426    1.0000 </r>
       <r>    3.0579    1.0000 </r>
       <r>    3.5203    1.0000 </r>
       <r>    3.5262    1.0000 </r>
       <r>    3.6518    1.0000 </r>
       <r>    3.6563    1.0000 </r>
       <r>    3.9893    1.0000 </r>
       <r>    4.0298    1.0000 </r>
       <r>    4.0376    1.0000 </r>
       <r>    4.0663    1.0000 </r>
       <r>    4.3412    1.0000 </r>
       <r>    4.3581    1.0000 </r>
       <r>    4.3870    1.0000 </r>
       <r>    4.3974    1.0000 </r>
       <r>    4.4184    1.0000 </r>
       <r>    4.4393    1.0000 </r>
       <r>    4.4541    1.0000 </r>
       <r>    4.4791    1.0000 </r>
       <r>    4.5943    1.0000 </r>
       <r>    4.6420    1.0000 </r>
       <r>    4.6628    1.0000 </r>
       <r>    4.6917    1.0000 </r>
       <r>    4.7610    1.0000 </r>
       <r>    4.7913    1.0000 </r>
       <r>    4.8585    1.0000 </r>
       <r>    4.8860    1.0000 </r>
       <r>    4.9677    1.0000 </r>
       <r>    5.0018    1.0000 </r>
       <r>    5.3854    1.0000 </r>
       <r>    5.4233    1.0000 </r>
       <r>    5.5657    1.0000 </r>
       <r>    5.6173    1.0000 </r>
       <r>    5.6289    1.0000 </r>
       <r>    5.6604    1.0000 </r>
       <r>    5.8614    1.0000 </r>
       <r>    5.8733    1.0000 </r>
       <r>    5.8996    1.0000 </r>
       <r>    5.9235    1.0000 </r>
       <r>    6.1890    1.0000 </r>
       <r>    6.2174    1.0000 </r>
       <r>    6.2484    1.0000 </r>
       <r>    6.3040    1.0000 </r>
       <r>    6.3408    1.0000 </r>
       <r>    6.4451    1.0000 </r>
       <r>    6.4745    1.0000 </r>
       <r>    6.4988    1.0000 </r>
       <r>    6.5334    1.0000 </r>
       <r>    6.7613    1.0000 </r>
       <r>    6.8021    1.0000 </r>
       <r>    6.8172    1.0000 </r>
       <r>    6.8426    1.0000 </r>
       <r>    6.8674    1.0000 </r>
       <r>    6.8783    1.0000 </r>
       <r>    6.8976    1.0000 </r>
       <r>    6.9231    1.0000 </r>
       <r>    6.9298    1.0000 </r>
       <r>    6.9563    1.0000 </r>
       <r>    6.9713    1.0000 </r>
       <r>    6.9777    1.0000 </r>
       <r>    6.9981    1.0000 </r>
       <r>    7.0295    1.0000 </r>
       <r>    7.4682    1.0000 </r>
       <r>    7.6481    1.0010 </r>
       <r>    7.7143    1.0040 </r>
       <r>    9.6765   -0.0000 </r>
       <r>   10.1795   -0.0000 </r>
       <r>   10.2375   -0.0000 </r>
       <r>   10.6261   -0.0000 </r>
       <r>   11.9456   -0.0000 </r>
       <r>   11.9945   -0.0000 </r>
       <r>   12.4870   -0.0000 </r>
       <r>   12.6104   -0.0000 </r>
       <r>   12.6477   -0.0000 </r>
       <r>   12.6678   -0.0000 </r>
       <r>   12.6919   -0.0000 </r>
       <r>   12.9161   -0.0000 </r>
       <r>   12.9656   -0.0000 </r>
       <r>   12.9840   -0.0000 </r>
       <r>   13.0097   -0.0000 </r>
       <r>   13.0268   -0.0000 </r>
       <r>   13.0465   -0.0000 </r>
       <r>   13.0786   -0.0000 </r>
       <r>   13.1071   -0.0000 </r>
       <r>   13.1297   -0.0000 </r>
       <r>   13.1384   -0.0000 </r>
       <r>   13.1955   -0.0000 </r>
       <r>   13.5073   -0.0000 </r>
       <r>   13.5958   -0.0000 </r>
       <r>   13.6089   -0.0000 </r>
       <r>   13.6586    0.0000 </r>
       <r>   13.6697    0.0000 </r>
       <r>   13.6795    0.0000 </r>
       <r>   13.6978    0.0000 </r>
       <r>   13.7087    0.0000 </r>
       <r>   13.7183    0.0000 </r>
       <r>   13.9281    0.0000 </r>
       <r>   13.9709    0.0000 </r>
       <r>   13.9797    0.0000 </r>
       <r>   14.0273    0.0000 </r>
       <r>   14.4817    0.0000 </r>
       <r>   14.8045    0.0000 </r>
       <r>   14.8265    0.0000 </r>
       <r>   14.8537    0.0000 </r>
       <r>   14.8900    0.0000 </r>
      </set>
      <set comment="kpoint 5">
       <r>   -6.9817    1.0000 </r>
       <r>   -6.4631    1.0000 </r>
       <r>   -6.4399    1.0000 </r>
       <r>   -5.9353    1.0000 </r>
       <r>   -5.4533    1.0000 </r>
       <r>   -5.4049    1.0000 </r>
       <r>   -5.0052    1.0000 </r>
       <r>   -4.9644    1.0000 </r>
       <r>   -4.9421    1.0000 </r>
       <r>   -4.9323    1.0000 </r>
       <r>   -4.5716    1.0000 </r>
       <r>   -4.5263    1.0000 </r>
       <r>   -4.4353    1.0000 </r>
       <r>   -4.4149    1.0000 </r>
       <r>   -4.0492    1.0000 </r>
       <r>   -3.9839    1.0000 </r>
       <r>   -3.5420    1.0000 </r>
       <r>   -3.5057    1.0000 </r>
       <r>   -3.4303    1.0000 </r>
       <r>   -3.3824    1.0000 </r>
       <r>   -3.3675    1.0000 </r>
       <r>   -3.3402    1.0000 </r>
       <r>   -3.1597    1.0000 </r>
       <r>   -3.0919    1.0000 </r>
       <r>   -2.8590    1.0000 </r>
       <r>   -2.8478    1.0000 </r>
       <r>   -2.7526    1.0000 </r>
       <r>   -2.7189    1.0000 </r>
       <r>   -2.6888    1.0000 </r>
       <r>   -2.3402    1.0000 </r>
       <r>   -2.3164    1.0000 </r>
       <r>   -2.2600    1.0000 </r>
       <r>   -0.1751    1.0000 </r>
       <r>   -0.1294    1.0000 </r>
       <r>    0.4486    1.0000 </r>
       <r>    0.5083    1.0000 </r>
       <r>    0.5395    1.0000 </r>
       <r>    0.5548    1.0000 </r>
       <r>    0.5932    1.0000 </r>
       <r>    0.6599    1.0000 </r>
       <r>    0.6913    1.0000 </r>
       <r>    0.7718    1.0000 </r>
       <r>    0.8190    1.0000 </r>
       <r>    0.8314    1.0000 </r>
       <r>    0.8530    1.0000 </r>
       <r>    0.9559    1.0000 </r>
       <r>    1.1888    1.0000 </r>
       <r>    1.2174    1.0000 </r>
       <r>    1.2482    1.0000 </r>
       <r>    1.3038    1.0000 </r>
       <r>    2.0072    1.0000 </r>
       <r>    2.0371    1.0000 </r>
       <r>    2.0685    1.0000 </r>
       <r>    2.0930    1.0000 </r>
       <r>    2.0976    1.0000 </r>
       <r>    2.1542    1.0000 </r>
       <r>    2.4069    1.0000 </r>
       <r>    2.5799    1.0000 </r>
       <r>    2.5980    1.0000 </r>
       <r>    2.6640    1.0000 </r>
       <r>    2.6942    1.0000 </r>
       <r>    3.1944    1.0000 </r>
       <r>    3.2339    1.0000 </r>
       <r>    3.2677    1.0000 </r>
       <r>    3.2867    1.0000 </r>
       <r>    3.3254    1.0000 </r>
       <r>    3.5082    1.0000 </r>
       <r>    3.5328    1.0000 </r>
       <r>    3.8982    1.0000 </r>
       <r>    3.9365    1.0000 </r>
       <r>    4.0316    1.0000 </r>
       <r>    4.0476    1.0000 </r>
       <r>    4.0777    1.0000 </r>
       <r>    4.1090    1.0000 </r>
       <r>    4.1178    1.0000 </r>
       <r>    4.3148    1.0000 </r>
       <r>    4.3296    1.0000 </r>
       <r>    4.4740    1.0000 </r>
       <r>    4.4931    1.0000 </r>
       <r>    4.6357    1.0000 </r>
       <r>    4.6788    1.0000 </r>
       <r>    4.8752    1.0000 </r>
       <r>    4.8919    1.0000 </r>
       <r>    4.9016    1.0000 </r>
       <r>    4.9154    1.0000 </r>
       <r>    4.9352    1.0000 </r>
       <r>    4.9650    1.0000 </r>
       <r>    5.1165    1.0000 </r>
       <r>    5.3033    1.0000 </r>
       <r>    5.3303    1.0000 </r>
       <r>    5.3945    1.0000 </r>
       <r>    5.4202    1.0000 </r>
       <r>    5.4392    1.0000 </r>
       <r>    5.4546    1.0000 </r>
       <r>    5.5273    1.0000 </r>
       <r>    5.5533    1.0000 </r>
       <r>    5.5642    1.0000 </r>
       <r>    5.5954    1.0000 </r>
       <r>    5.6090    1.0000 </r>
       <r>    5.6444    1.0000 </r>
       <r>    5.6744    1.0000 </r>
       <r>    5.8542    1.0000 </r>
       <r>    5.9734    1.0000 </r>
       <r>    5.9972    1.0000 </r>
       <r>    6.0223    1.0000 </r>
       <r>    6.0437    1.0000 </r>
       <r>    6.1688    1.0000 </r>
       <r>    6.2166    1.0000 </r>
       <r>    6.2843    1.0000 </r>
       <r>    6.3251    1.0000 </r>
       <r>    6.4040    1.0000 </r>
       <r>    6.4396    1.0000 </r>
       <r>    6.4802    1.0000 </r>
       <r>    6.5061    1.0000 </r>
       <r>    6.5187    1.0000 </r>
       <r>    6.6455    1.0000 </r>
       <r>    6.6697    1.0000 </r>
       <r>    6.7284    1.0000 </r>
       <r>    6.7675    1.0000 </r>
       <r>    6.8343    1.0000 </r>
       <r>    6.8734    1.0000 </r>
       <r>    6.8792    1.0000 </r>
       <r>    6.9226    1.0000 </r>
       <r>    7.3135    1.0000 </r>
       <r>    7.4397    1.0000 </r>
       <r>    7.4729    1.0000 </r>
       <r>    7.6709    1.0017 </r>
       <r>    8.0036    0.9774 </r>
       <r>   10.4032   -0.0000 </r>
       <r>   10.4727   -0.0000 </r>
       <r>   10.5474   -0.0000 </r>
       <r>   11.3227   -0.0000 </r>
       <r>   11.3525   -0.0000 </r>
       <r>   11.6333   -0.0000 </r>
       <r>   11.6575   -0.0000 </r>
       <r>   11.8178   -0.0000 </r>
       <r>   12.1847   -0.0000 </r>
       <r>   12.2056   -0.0000 </r>
       <r>   12.8228   -0.0000 </r>
       <r>   12.8426   -0.0000 </r>
       <r>   12.8853   -0.0000 </r>
       <r>   12.9136   -0.0000 </r>
       <r>   13.0398   -0.0000 </r>
       <r>   13.0974   -0.0000 </r>
       <r>   13.1252   -0.0000 </r>
       <r>   13.1584   -0.0000 </r>
       <r>   13.2003   -0.0000 </r>
       <r>   13.2138   -0.0000 </r>
       <r>   13.2723   -0.0000 </r>
       <r>   13.3081   -0.0000 </r>
       <r>   13.5281   -0.0000 </r>
       <r>   13.5585   -0.0000 </r>
       <r>   13.5910   -0.0000 </r>
       <r>   13.6201    0.0000 </r>
       <r>   13.7234    0.0000 </r>
       <r>   13.7550    0.0000 </r>
       <r>   13.7690    0.0000 </r>
       <r>   13.7738    0.0000 </r>
       <r>   13.8746    0.0000 </r>
       <r>   13.9099    0.0000 </r>
       <r>   13.9926    0.0000 </r>
       <r>   14.0693    0.0000 </r>
       <r>   14.1166    0.0000 </r>
       <r>   14.6627    0.0000 </r>
       <r>   14.7376    0.0000 </r>
       <r>   14.7409    0.0000 </r>
       <r>   14.9532    0.0000 </r>
       <r>   15.0209    0.0000 </r>
      </set>
      <set comment="kpoint 6">
       <r>   -6.9816    1.0000 </r>
       <r>   -6.4608    1.0000 </r>
       <r>   -6.4419    1.0000 </r>
       <r>   -5.9376    1.0000 </r>
       <r>   -5.4344    1.0000 </r>
       <r>   -5.4248    1.0000 </r>
       <r>   -4.9797    1.0000 </r>
       <r>   -4.9738    1.0000 </r>
       <r>   -4.9530    1.0000 </r>
       <r>   -4.9306    1.0000 </r>
       <r>   -4.5636    1.0000 </r>
       <r>   -4.5367    1.0000 </r>
       <r>   -4.4356    1.0000 </r>
       <r>   -4.4229    1.0000 </r>
       <r>   -4.0420    1.0000 </r>
       <r>   -3.9887    1.0000 </r>
       <r>   -3.5243    1.0000 </r>
       <r>   -3.5062    1.0000 </r>
       <r>   -3.4074    1.0000 </r>
       <r>   -3.3972    1.0000 </r>
       <r>   -3.3734    1.0000 </r>
       <r>   -3.3567    1.0000 </r>
       <r>   -3.1439    1.0000 </r>
       <r>   -3.1053    1.0000 </r>
       <r>   -2.8631    1.0000 </r>
       <r>   -2.8485    1.0000 </r>
       <r>   -2.7462    1.0000 </r>
       <r>   -2.7164    1.0000 </r>
       <r>   -2.6991    1.0000 </r>
       <r>   -2.3269    1.0000 </r>
       <r>   -2.3200    1.0000 </r>
       <r>   -2.2622    1.0000 </r>
       <r>   -0.1997    1.0000 </r>
       <r>   -0.1446    1.0000 </r>
       <r>    0.4690    1.0000 </r>
       <r>    0.5370    1.0000 </r>
       <r>    0.5460    1.0000 </r>
       <r>    0.5763    1.0000 </r>
       <r>    0.5832    1.0000 </r>
       <r>    0.6339    1.0000 </r>
       <r>    0.6806    1.0000 </r>
       <r>    0.7829    1.0000 </r>
       <r>    0.8091    1.0000 </r>
       <r>    0.8408    1.0000 </r>
       <r>    0.8490    1.0000 </r>
       <r>    0.9979    1.0000 </r>
       <r>    1.1870    1.0000 </r>
       <r>    1.2436    1.0000 </r>
       <r>    1.2501    1.0000 </r>
       <r>    1.2825    1.0000 </r>
       <r>    1.9742    1.0000 </r>
       <r>    2.0255    1.0000 </r>
       <r>    2.0581    1.0000 </r>
       <r>    2.0788    1.0000 </r>
       <r>    2.0965    1.0000 </r>
       <r>    2.1165    1.0000 </r>
       <r>    2.4153    1.0000 </r>
       <r>    2.5651    1.0000 </r>
       <r>    2.5875    1.0000 </r>
       <r>    2.6771    1.0000 </r>
       <r>    2.7235    1.0000 </r>
       <r>    3.2172    1.0000 </r>
[...]
      </set>
     </set>
    </set>
   </array>
  </eigenvalues>
  <separator name="orbital magnetization" >
   <v name="MAGDIPOLOUT">      0.00000000      0.00000000      0.00000000</v>
  </separator>
  <dos>
   <i name="efermi">      8.15445645 </i>
   <total>
    <array>
     <dimension dim="1">gridpoints</dimension>
     <dimension dim="2">spin</dimension>
     <field>energy</field>
     <field>total</field>
     <field>integrated</field>
     <set>
      <set comment="spin 1">
       <r>    -9.3382     0.0000     0.0000 </r>
       <r>    -9.2488     0.0000     0.0000 </r>
       <r>    -9.1593     0.0000     0.0000 </r>
       <r>    -9.0699     0.0000     0.0000 </r>
       <r>    -8.9805    -0.0000    -0.0000 </r>
       <r>    -8.8910    -0.0000    -0.0000 </r>
       <r>    -8.8016    -0.0000    -0.0000 </r>
       <r>    -8.7121    -0.0000    -0.0000 </r>
       <r>    -8.6227    -0.0000    -0.0000 </r>
       <r>    -8.5332    -0.0000    -0.0000 </r>
       <r>    -8.4438    -0.0000    -0.0000 </r>
       <r>    -8.3544    -0.0000    -0.0000 </r>
       <r>    -8.2649    -0.0000    -0.0000 </r>
       <r>    -8.1755    -0.0000    -0.0000 </r>
       <r>    -8.0860    -0.0000    -0.0000 </r>
       <r>    -7.9966    -0.0000    -0.0000 </r>
       <r>    -7.9071    -0.0002    -0.0000 </r>
       <r>    -7.8177    -0.0014    -0.0001 </r>
       <r>    -7.7282    -0.0073    -0.0008 </r>
       <r>    -7.6388    -0.0231    -0.0029 </r>
       <r>    -7.5494    -0.0416    -0.0066 </r>
       <r>    -7.4599    -0.0187    -0.0083 </r>
       <r>    -7.3705     0.1494     0.0051 </r>
       <r>    -7.2810     0.6378     0.0622 </r>
       <r>    -7.1916     1.5652     0.2022 </r>
       <r>    -7.1021     2.8206     0.4544 </r>
       <r>    -7.0127     4.0357     0.8154 </r>
       <r>    -6.9233     4.5640     1.2236 </r>
       <r>    -6.8338     4.0680     1.5875 </r>
       <r>    -6.7444     3.0855     1.8635 </r>
       <r>    -6.6549     2.6976     2.1048 </r>
       <r>    -6.5655     4.0808     2.4698 </r>
       <r>    -6.4760     7.2060     3.1143 </r>
       <r>    -6.3866    10.0424     4.0125 </r>
       <r>    -6.2972    10.4170     4.9442 </r>
       <r>    -6.2077     7.7228     5.6350 </r>
       <r>    -6.1183     3.6766     5.9639 </r>
       <r>    -6.0288     1.7505     6.1204 </r>
       <r>    -5.9394     3.5371     6.4368 </r>
       <r>    -5.8499     7.3851     7.0973 </r>
       <r>    -5.7605    10.6913     8.0536 </r>
       <r>    -5.6710    11.8621     9.1146 </r>
       <r>    -5.5816    11.5175    10.1448 </r>
       <r>    -5.4922    11.0021    11.1288 </r>
       <r>    -5.4027     9.9036    12.0147 </r>
       <r>    -5.3133     7.6344    12.6975 </r>
       <r>    -5.2238     6.1975    13.2518 </r>
       <r>    -5.1344     8.4960    14.0117 </r>
       <r>    -5.0449    13.8576    15.2512 </r>
       <r>    -4.9555    17.0090    16.7726 </r>
       <r>    -4.8661    13.4526    17.9758 </r>
       <r>    -4.7766     6.1085    18.5222 </r>
       <r>    -4.6872     2.6792    18.7618 </r>
       <r>    -4.5977     6.1454    19.3115 </r>
       <r>    -4.5083    12.6639    20.4442 </r>
       <r>    -4.4188    17.8697    22.0425 </r>
       <r>    -4.3294    19.8752    23.8202 </r>
       <r>    -4.2399    17.7894    25.4114 </r>
       <r>    -4.1505    14.3733    26.6970 </r>
       <r>    -4.0611    16.0712    28.1345 </r>
       <r>    -3.9716    22.5546    30.1518 </r>
       <r>    -3.8822    24.4506    32.3388 </r>
       <r>    -3.7927    18.0569    33.9539 </r>
       <r>    -3.7033    11.0492    34.9421 </r>
       <r>    -3.6138    10.4246    35.8745 </r>
       <r>    -3.5244    15.7677    37.2849 </r>
       <r>    -3.4350    22.4063    39.2890 </r>
       <r>    -3.3455    24.1056    41.4451 </r>
       <r>    -3.2561    19.4319    43.1831 </r>
       <r>    -3.1666    15.1168    44.5352 </r>
       <r>    -3.0772    16.0318    45.9692 </r>
       <r>    -2.9877    20.3585    47.7901 </r>
       <r>    -2.8983    25.9202    50.1085 </r>
       <r>    -2.8088    29.8945    52.7824 </r>
       <r>    -2.7194    27.3848    55.2318 </r>
       <r>    -2.6300    18.7081    56.9051 </r>
       <r>    -2.5405    11.0266    57.8913 </r>
       <r>    -2.4511     9.7130    58.7601 </r>
       <r>    -2.3616    13.7520    59.9901 </r>
       <r>    -2.2722    17.4974    61.5552 </r>
       <r>    -2.1827    15.6453    62.9545 </r>
       <r>    -2.0933     9.1548    63.7734 </r>
       <r>    -2.0039     3.1268    64.0531 </r>
       <r>    -1.9144     0.2013    64.0711 </r>
       <r>    -1.8250    -0.4223    64.0333 </r>
       <r>    -1.7355    -0.2641    64.0097 </r>
       <r>    -1.6461    -0.0870    64.0019 </r>
       <r>    -1.5566    -0.0182    64.0002 </r>
       <r>    -1.4672    -0.0025    64.0000 </r>
       <r>    -1.3777    -0.0002    64.0000 </r>
       <r>    -1.2883    -0.0000    64.0000 </r>
       <r>    -1.1989    -0.0000    64.0000 </r>
       <r>    -1.1094    -0.0003    64.0000 </r>
       <r>    -1.0200    -0.0025    63.9997 </r>
       <r>    -0.9305    -0.0131    63.9986 </r>
       <r>    -0.8411    -0.0392    63.9951 </r>
       <r>    -0.7516    -0.0428    63.9912 </r>
       <r>    -0.6622     0.1065    64.0008 </r>
       <r>    -0.5728     0.4521    64.0412 </r>
       <r>    -0.4833     0.6779    64.1018 </r>
       <r>    -0.3939     0.7450    64.1685 </r>
       <r>    -0.3044     1.9828    64.3458 </r>
       <r>    -0.2150     5.6207    64.8486 </r>
       <r>    -0.1255     9.7317    65.7190 </r>
       <r>    -0.0361    10.6887    66.6750 </r>
       <r>     0.0533     8.1566    67.4046 </r>
       <r>     0.1428     6.0247    67.9435 </r>
       <r>     0.2322     7.9136    68.6513 </r>
       <r>     0.3217    13.3411    69.8445 </r>
       <r>     0.4111    19.2651    71.5677 </r>
       <r>     0.5006    23.2088    73.6436 </r>
       <r>     0.5900    24.5173    75.8365 </r>
       <r>     0.6795    25.5111    78.1183 </r>
       <r>     0.7689    29.1588    80.7264 </r>
       <r>     0.8583    32.8101    83.6610 </r>
       <r>     0.9478    31.4833    86.4770 </r>
       <r>     1.0372    28.2994    89.0082 </r>
       <r>     1.1267    30.6165    91.7466 </r>
       <r>     1.2161    37.3078    95.0836 </r>
       <r>     1.3056    38.7637    98.5508 </r>
       <r>     1.3950    29.5182   101.1910 </r>
       <r>     1.4844    15.0254   102.5349 </r>
       <r>     1.5739     3.8930   102.8831 </r>
       <r>     1.6633    -0.8521   102.8069 </r>
       <r>     1.7528    -1.0557   102.7125 </r>
       <r>     1.8422     1.8191   102.8752 </r>
       <r>     1.9317     8.9203   103.6730 </r>
       <r>     2.0211    19.5586   105.4224 </r>
       <r>     2.1106    26.5391   107.7962 </r>
       <r>     2.2000    23.2970   109.8800 </r>
       <r>     2.2894    13.5903   111.0955 </r>
       <r>     2.3789     6.3173   111.6606 </r>
       <r>     2.4683     5.6225   112.1635 </r>
       <r>     2.5578    10.3859   113.0924 </r>
       <r>     2.6472    16.3472   114.5546 </r>
       <r>     2.7367    17.6718   116.1352 </r>
       <r>     2.8261    14.0318   117.3903 </r>
       <r>     2.9155    12.5276   118.5108 </r>
       <r>     3.0050    16.3990   119.9776 </r>
       <r>     3.0944    21.7431   121.9223 </r>
       <r>     3.1839    27.1103   124.3472 </r>
       <r>     3.2733    32.4401   127.2487 </r>
       <r>     3.3628    33.2275   130.2207 </r>
       <r>     3.4522    29.1398   132.8271 </r>
       <r>     3.5417    26.0768   135.1595 </r>
       <r>     3.6311    23.9129   137.2984 </r>
       <r>     3.7205    18.5401   138.9567 </r>
       <r>     3.8100    12.6818   140.0910 </r>
       <r>     3.8994    13.5185   141.3001 </r>
       <r>     3.9889    21.1430   143.1912 </r>
       <r>     4.0783    25.6613   145.4864 </r>
       <r>     4.1678    21.4986   147.4094 </r>
       <r>     4.2572    17.6799   148.9907 </r>
       <r>     4.3466    23.1091   151.0577 </r>
       <r>     4.4361    32.3196   153.9485 </r>
       <r>     4.5255    36.7731   157.2376 </r>
       <r>     4.6150    36.1600   160.4719 </r>
       <r>     4.7044    33.9784   163.5110 </r>
       <r>     4.7939    33.9072   166.5438 </r>
       <r>     4.8833    36.2577   169.7868 </r>
       <r>     4.9728    35.7904   172.9880 </r>
       <r>     5.0622    31.6920   175.8227 </r>
       <r>     5.1516    29.6844   178.4778 </r>
       <r>     5.2411    30.5554   181.2108 </r>
       <r>     5.3305    30.4614   183.9353 </r>
       <r>     5.4200    30.2709   186.6429 </r>
       <r>     5.5094    34.6977   189.7464 </r>
       <r>     5.5989    42.1804   193.5191 </r>
       <r>     5.6883    43.7793   197.4349 </r>
       <r>     5.7777    38.0644   200.8395 </r>
       <r>     5.8672    33.8587   203.8680 </r>
       <r>     5.9566    33.3814   206.8537 </r>
       <r>     6.0461    31.2467   209.6485 </r>
       <r>     6.1355    28.3186   212.1815 </r>
       <r>     6.2250    29.6052   214.8295 </r>
       <r>     6.3144    33.5053   217.8263 </r>
       <r>     6.4038    35.7475   221.0237 </r>
       <r>     6.4933    34.6936   224.1268 </r>
       <r>     6.5827    29.6233   226.7764 </r>
       <r>     6.6722    25.0855   229.0202 </r>
       <r>     6.7616    28.5916   231.5775 </r>
       <r>     6.8511    38.6111   235.0310 </r>
       <r>     6.9405    43.8066   238.9493 </r>
       <r>     7.0300    36.3344   242.1991 </r>
       <r>     7.1194    21.8925   244.1573 </r>
       <r>     7.2088    12.2112   245.2495 </r>
       <r>     7.2983    11.5248   246.2803 </r>
       <r>     7.3877    15.8710   247.6999 </r>
       <r>     7.4772    20.2227   249.5087 </r>
       <r>     7.5666    21.5347   251.4348 </r>
       <r>     7.6561    18.8845   253.1239 </r>
       <r>     7.7455    13.2005   254.3046 </r>
       <r>     7.8349     7.2249   254.9508 </r>
       <r>     7.9244     4.1945   255.3260 </r>
       <r>     8.0138     3.7502   255.6614 </r>
       <r>     8.1033     2.9099   255.9217 </r>
       <r>     8.1927     1.1748   256.0268 </r>
       <r>     8.2822     0.0230   256.0289 </r>
       <r>     8.3716    -0.1987   256.0111 </r>
       <r>     8.4611    -0.0963   256.0025 </r>
       <r>     8.5505    -0.0237   256.0003 </r>
       <r>     8.6399    -0.0036   256.0000 </r>
       <r>     8.7294    -0.0006   256.0000 </r>
       <r>     8.8188    -0.0019   255.9998 </r>
       <r>     8.9083    -0.0094   255.9990 </r>
       <r>     8.9977    -0.0269   255.9966 </r>
       <r>     9.0872    -0.0260   255.9942 </r>
       <r>     9.1766     0.0896   256.0023 </r>
       <r>     9.2660     0.3771   256.0360 </r>
       <r>     9.3555     0.6551   256.0946 </r>
       <r>     9.4449     0.7071   256.1578 </r>
       <r>     9.5344     0.8088   256.2302 </r>
       <r>     9.6238     1.3492   256.3508 </r>
       <r>     9.7133     1.7899   256.5109 </r>
       <r>     9.8027     1.3180   256.6288 </r>
       <r>     9.8922     0.3276   256.6581 </r>
       <r>     9.9816    -0.1184   256.6475 </r>
       <r>    10.0710     0.5528   256.6970 </r>
       <r>    10.1605     2.0940   256.8843 </r>
       <r>    10.2499     3.7441   257.2192 </r>
       <r>    10.3394     5.5999   257.7200 </r>
       <r>    10.4288     8.2373   258.4568 </r>
       <r>    10.5183    10.6420   259.4087 </r>
       <r>    10.6077    11.4381   260.4317 </r>
       <r>    10.6971    10.4947   261.3704 </r>
       <r>    10.7866     7.8046   262.0685 </r>
       <r>    10.8760     3.9367   262.4206 </r>
       <r>    10.9655     0.7287   262.4858 </r>
       <r>    11.0549    -0.6680   262.4260 </r>
       <r>    11.1444    -0.2439   262.4042 </r>
       <r>    11.2338     2.1866   262.5998 </r>
       <r>    11.3232     5.6672   263.1067 </r>
       <r>    11.4127     7.9157   263.8147 </r>
       <r>    11.5021     9.3326   264.6494 </r>
       <r>    11.5916    11.5960   265.6866 </r>
       <r>    11.6810    13.4084   266.8859 </r>
       <r>    11.7705    14.6689   268.1980 </r>
       <r>    11.8599    17.7669   269.7871 </r>
       <r>    11.9494    21.2869   271.6911 </r>
       <r>    12.0388    21.4547   273.6101 </r>
       <r>    12.1282    18.1631   275.2346 </r>
       <r>    12.2177    13.1426   276.4102 </r>
       <r>    12.3071     7.1828   277.0526 </r>
       <r>    12.3966     2.8629   277.3087 </r>
       <r>    12.4860     4.4729   277.7088 </r>
       <r>    12.5755    12.5091   278.8276 </r>
       <r>    12.6649    21.5321   280.7535 </r>
       <r>    12.7543    26.5149   283.1251 </r>
       <r>    12.8438    28.0820   285.6369 </r>
       <r>    12.9332    29.0043   288.2311 </r>
       <r>    13.0227    31.5102   291.0495 </r>
       <r>    13.1121    35.2218   294.1999 </r>
       <r>    13.2016    34.4979   297.2855 </r>
       <r>    13.2910    25.7290   299.5868 </r>
       <r>    13.3805    15.4295   300.9669 </r>
       <r>    13.4699    14.3444   302.2499 </r>
       <r>    13.5593    24.1114   304.4065 </r>
       <r>    13.6488    34.3365   307.4777 </r>
       <r>    13.7382    35.4000   310.6440 </r>
       <r>    13.8277    29.4991   313.2825 </r>
       <r>    13.9171    26.0867   315.6158 </r>
       <r>    14.0066    28.9255   318.2030 </r>
       <r>    14.0960    32.1438   321.0780 </r>
       <r>    14.1854    29.2398   323.6934 </r>
       <r>    14.2749    20.0155   325.4836 </r>
       <r>    14.3643     9.2871   326.3143 </r>
       <r>    14.4538     2.6271   326.5493 </r>
       <r>    14.5432     2.9685   326.8148 </r>
       <r>    14.6327     9.8617   327.6968 </r>
       <r>    14.7221    18.3961   329.3422 </r>
       <r>    14.8116    21.6188   331.2759 </r>
       <r>    14.9010    18.3619   332.9183 </r>
       <r>    14.9904    12.6392   334.0488 </r>
       <r>    15.0799     6.8468   334.6612 </r>
       <r>    15.1693     2.1340   334.8520 </r>
       <r>    15.2588     0.2773   334.8769 </r>
       <r>    15.3482     1.6409   335.0236 </r>
       <r>    15.4377     3.9832   335.3799 </r>
       <r>    15.5271     4.3622   335.7701 </r>
       <r>    15.6165     2.4685   335.9909 </r>
       <r>    15.7060     0.5192   336.0373 </r>
       <r>    15.7954    -0.1922   336.0201 </r>
       <r>    15.8849    -0.1638   336.0055 </r>
       <r>    15.9743    -0.0510   336.0009 </r>
       <r>    16.0638    -0.0090   336.0001 </r>
       <r>    16.1532    -0.0010   336.0000 </r>
       <r>    16.2427    -0.0001   336.0000 </r>
       <r>    16.3321    -0.0000   336.0000 </r>
       <r>    16.4215    -0.0000   336.0000 </r>
       <r>    16.5110    -0.0000   336.0000 </r>
       <r>    16.6004    -0.0000   336.0000 </r>
       <r>    16.6899    -0.0000   336.0000 </r>
       <r>    16.7793    -0.0000   336.0000 </r>
       <r>    16.8688     0.0000   336.0000 </r>
       <r>    16.9582     0.0000   336.0000 </r>
       <r>    17.0476     0.0000   336.0000 </r>
       <r>    17.1371     0.0000   336.0000 </r>
       <r>    17.2265     0.0000   336.0000 </r>
       <r>    17.3160     0.0000   336.0000 </r>
       <r>    17.4054     0.0000   336.0000 </r>
       <r>    17.4949     0.0000   336.0000 </r>
      </set>
     </set>
    </array>
   </total>
  </dos>
 </calculation>
 <structure name="finalpos" >
  <crystal>
   <varray name="basis" >
    <v>       8.74331558       0.00000000       0.00000000 </v>
    <v>       0.00000000       8.74331558       0.00000000 </v>
    <v>       0.00000000       0.00000000       8.74331558 </v>
   </varray>
   <i name="volume">    668.38771987 </i>
   <varray name="rec_basis" >
    <v>       0.11437309       0.00000000       0.00000000 </v>
    <v>       0.00000000       0.11437309       0.00000000 </v>
    <v>       0.00000000       0.00000000       0.11437309 </v>
   </varray>
  </crystal>
  <varray name="positions" >
   <v>       0.12784265       0.12777481       0.12424048 </v>
   <v>       0.12486900       0.37174182       0.37447165 </v>
   <v>       0.37100348       0.12443440       0.37136849 </v>
   <v>       0.37653657       0.37730927       0.12285523 </v>
   <v>       0.12469914       0.12466002       0.62475928 </v>
   <v>       0.12309862       0.37301858       0.87842519 </v>
   <v>       0.37643391       0.12216733       0.87700650 </v>
   <v>       0.37677779       0.37427316       0.62397706 </v>
   <v>       0.12475552       0.62655521       0.12480411 </v>
   <v>       0.12401529       0.87683238       0.37700664 </v>
   <v>       0.37355269       0.62980389       0.37276848 </v>
   <v>       0.37456716       0.87333052       0.12444441 </v>
   <v>       0.12229692       0.62651685       0.62400025 </v>
   <v>       0.12568351       0.87457453       0.87817577 </v>
   <v>       0.37464119       0.62465875       0.87224266 </v>
   <v>       0.37358203       0.87376834       0.62042257 </v>
   <v>       0.62359124       0.12388732       0.12216873 </v>
   <v>       0.62573764       0.37643891       0.37904555 </v>
   <v>       0.87406105       0.12587253       0.37436815 </v>
   <v>       0.87676184       0.37487121       0.12401823 </v>
   <v>       0.62846537       0.12344749       0.62414161 </v>
   <v>       0.62424704       0.37684048       0.87105437 </v>
   <v>       0.87744958       0.12884459       0.87511186 </v>
   <v>       0.87582903       0.37363621       0.62738652 </v>
   <v>       0.62762040       0.62704292       0.12453663 </v>
   <v>       0.62340996       0.87774259       0.37403159 </v>
   <v>       0.87759480       0.62437370       0.37184917 </v>
   <v>       0.87529027       0.87292467       0.12464118 </v>
   <v>       0.62384862       0.62292610       0.62521486 </v>
   <v>       0.62385409       0.88012773       0.87525028 </v>
   <v>       0.87390857       0.62630364       0.87302551 </v>
   <v>       0.87603921       0.87697135       0.62951301 </v>
   <v>       0.99830622       0.99477144       0.99914823 </v>
   <v>       0.00092828       0.24880975       0.25304614 </v>
   <v>       0.25023978       0.99920100       0.25017983 </v>
   <v>       0.24677000       0.24950716       0.00161817 </v>
   <v>       0.99962124       0.99972102       0.49982769 </v>
   <v>       0.99973054       0.24724429       0.75194545 </v>
   <v>       0.24866042       0.00139418       0.75260951 </v>
   <v>       0.25078258       0.24799170       0.50025561 </v>
   <v>       0.99943931       0.49747021       0.99870063 </v>
   <v>       0.99879759       0.75156320       0.25143736 </v>
   <v>       0.24902386       0.50186743       0.25059787 </v>
   <v>       0.25061142       0.75205207       0.00297697 </v>
   <v>       0.00368932       0.49789094       0.49971924 </v>
   <v>       0.00173657       0.74625603       0.75311446 </v>
   <v>       0.24796000       0.50112447       0.75294671 </v>
   <v>       0.24815749       0.74984882       0.50019347 </v>
   <v>       0.50033860       0.99957929       0.00077969 </v>
   <v>       0.50006610       0.25261358       0.24790480 </v>
   <v>       0.74729525       0.99744613       0.25050071 </v>
   <v>       0.75309654       0.25256460       0.00137543 </v>
   <v>       0.49876389       0.99652317       0.50265771 </v>
   <v>       0.49955132       0.25031585       0.74861490 </v>
   <v>       0.74959829       0.99912792       0.74965833 </v>
   <v>       0.75039116       0.25254504       0.49522861 </v>
   <v>       0.49989171       0.50152290       0.00202189 </v>
   <v>       0.49985637       0.75156650       0.25165865 </v>
   <v>       0.75065803       0.49816651       0.24980030 </v>
   <v>       0.75370692       0.75106457       0.99855592 </v>
   <v>       0.49840364       0.49840523       0.50016810 </v>
   <v>       0.49703051       0.74974733       0.74953548 </v>
   <v>       0.74815531       0.49985945       0.74950651 </v>
   <v>       0.75150158       0.75287276       0.49896746 </v>
  </varray>
 </structure>
</modeling>
