unknown system                          
           1
     8.743316    0.000000    0.000000
     0.000000    8.743316    0.000000
     0.000000    0.000000    8.743316
   C    Si
    32    32
Direct configuration=     1
   0.12784265  0.12777481  0.12424048
   0.12486900  0.37174182  0.37447165
   0.37100348  0.12443440  0.37136849
   0.37653657  0.37730927  0.12285523
   0.12469914  0.12466002  0.62475928
   0.12309862  0.37301858  0.87842519
   0.37643391  0.12216733  0.87700650
   0.37677779  0.37427316  0.62397706
   0.12475552  0.62655521  0.12480411
   0.12401529  0.87683238  0.37700664
   0.37355269  0.62980389  0.37276848
   0.37456716  0.87333052  0.12444441
   0.12229692  0.62651685  0.62400025
   0.12568351  0.87457453  0.87817577
   0.37464119  0.62465875  0.87224266
   0.37358203  0.87376834  0.62042257
   0.62359124  0.12388732  0.12216873
   0.62573764  0.37643891  0.37904555
   0.87406105  0.12587253  0.37436815
   0.87676184  0.37487121  0.12401823
   0.62846537  0.12344749  0.62414161
   0.62424704  0.37684048  0.87105437
   0.87744958  0.12884459  0.87511186
   0.87582903  0.37363621  0.62738652
   0.62762040  0.62704292  0.12453663
   0.62340996  0.87774259  0.37403159
   0.87759480  0.62437370  0.37184917
   0.87529027  0.87292467  0.12464118
   0.62384862  0.62292610  0.62521486
   0.62385409  0.88012773  0.87525028
   0.87390857  0.62630364  0.87302551
   0.87603921  0.87697135  0.62951301
   0.99830622  0.99477144  0.99914823
   0.00092828  0.24880975  0.25304614
   0.25023978  0.99920100  0.25017983
   0.24677000  0.24950716  0.00161817
   0.99962124  0.99972102  0.49982769
   0.99973054  0.24724429  0.75194545
   0.24866042  0.00139418  0.75260951
   0.25078258  0.24799170  0.50025561
   0.99943931  0.49747021  0.99870063
   0.99879759  0.75156320  0.25143736
   0.24902386  0.50186743  0.25059787
   0.25061142  0.75205207  0.00297697
   0.00368932  0.49789094  0.49971924
   0.00173657  0.74625603  0.75311446
   0.24796000  0.50112447  0.75294671
   0.24815749  0.74984882  0.50019347
   0.50033860  0.99957929  0.00077969
   0.50006610  0.25261358  0.24790480
   0.74729525  0.99744613  0.25050071
   0.75309654  0.25256460  0.00137543
   0.49876389  0.99652317  0.50265771
   0.49955132  0.25031585  0.74861490
   0.74959829  0.99912792  0.74965833
   0.75039116  0.25254504  0.49522861
   0.49989171  0.50152290  0.00202189
   0.49985637  0.75156650  0.25165865
   0.75065803  0.49816651  0.24980030
   0.75370692  0.75106457  0.99855592
   0.49840364  0.49840523  0.50016810
   0.49703051  0.74974733  0.74953548
   0.74815531  0.49985945  0.74950651
   0.75150158  0.75287276  0.49896746
