       N       E                     dE             d eps       ncg     rms          rms(c)
DAV:   1     0.669356115253E+03    0.66936E+03   -0.99555E+04  4704   0.111E+03
DAV:   2    -0.462582735139E+03   -0.11319E+04   -0.10725E+04  5832   0.221E+02
DAV:   3    -0.537667902424E+03   -0.75085E+02   -0.74395E+02  5680   0.561E+01
DAV:   4    -0.539324487108E+03   -0.16566E+01   -0.16495E+01  5712   0.904E+00
DAV:   5    -0.539371513756E+03   -0.47027E-01   -0.46946E-01  5544   0.144E+00    0.492E+01
DAV:   6    -0.482681086115E+03    0.56690E+02   -0.19036E+02  5360   0.234E+01    0.218E+01
DAV:   7    -0.481319281425E+03    0.13618E+01   -0.15704E+01  5864   0.703E+00    0.974E+00
DAV:   8    -0.481091986898E+03    0.22729E+00   -0.10165E+00  5384   0.196E+00    0.262E+00
DAV:   9    -0.481075402365E+03    0.16585E-01   -0.14008E-01  5456   0.806E-01    0.430E-01
DAV:  10    -0.481078620024E+03   -0.32177E-02   -0.12688E-02  5640   0.245E-01    0.228E-01
DAV:  11    -0.481079517874E+03   -0.89785E-03   -0.17398E-03  5216   0.108E-01    0.748E-02
DAV:  12    -0.481079534122E+03   -0.16248E-04   -0.25912E-04  5808   0.390E-02    0.362E-02
DAV:  13    -0.481079543372E+03   -0.92498E-05   -0.68776E-05  5192   0.202E-02    0.101E-02
DAV:  14    -0.481079549841E+03   -0.64691E-05   -0.63977E-06  5360   0.549E-03    0.494E-03
DAV:  15    -0.481079551603E+03   -0.17617E-05   -0.15345E-06  5672   0.281E-03    0.386E-03
DAV:  16    -0.481079551332E+03    0.27110E-06   -0.14004E-07  5776   0.991E-04    0.141E-03
DAV:  17    -0.481079551487E+03   -0.15531E-06   -0.64781E-08  5032   0.549E-04    0.667E-04
DAV:  18    -0.481079551501E+03   -0.14206E-07   -0.65403E-09  2736   0.225E-04    0.234E-04
DAV:  19    -0.481079551481E+03    0.20667E-07   -0.43897E-09  2688   0.146E-04    0.989E-05
DAV:  20    -0.481079551483E+03   -0.24665E-08   -0.47654E-10  2688   0.659E-05
   1 F= -.48107955E+03 E0= -.48108279E+03  d E =0.970878E-02
