<?xml version="1.0" encoding="ISO-8859-1"?>
<modeling>
 <generator>
  <i name="program" type="string">vasp </i>
  <i name="version" type="string">6.2.1  </i>
  <i name="subversion" type="string">16May21 (build Jun 06 2020 10:27:25) complex                          parallel </i>
  <i name="platform" type="string">LinuxIFC </i>
  <i name="date" type="string">2024 01 12 </i>
  <i name="time" type="string">17:55:57 </i>
 </generator>
 <incar>
  <i type="int" name="NELM">    60</i>
  <i type="int" name="IBRION">     1</i>
  <i name="EDIFF">      0.00000001</i>
  <i type="int" name="NSW">     0</i>
  <i type="int" name="ISIF">     3</i>
  <i type="int" name="ISYM">     0</i>
  <i type="logical" name="LWAVE"> F  </i>
  <i type="logical" name="LCHARG"> F  </i>
  <i type="string" name="GGA">PE</i>
 </incar>
 <primitive_cell>
  <structure name="primitive_cell" >
   <crystal>
    <varray name="basis" >
     <v>       8.74331558       0.00000000       0.00000000 </v>
     <v>       0.00000000       8.74331558       0.00000000 </v>
     <v>       0.00000000       0.00000000       8.74331558 </v>
    </varray>
    <i name="volume">    668.38771987 </i>
    <varray name="rec_basis" >
     <v>       0.11437309       0.00000000       0.00000000 </v>
     <v>       0.00000000       0.11437309       0.00000000 </v>
     <v>       0.00000000       0.00000000       0.11437309 </v>
    </varray>
   </crystal>
   <varray name="positions" >
    <v>       0.12806373       0.12278634       0.12450769 </v>
    <v>       0.12800114       0.37467470       0.37663231 </v>
    <v>       0.37517717       0.12574054       0.37638021 </v>
    <v>       0.37652585       0.37411071       0.12299943 </v>
    <v>       0.12416468       0.12669989       0.62673450 </v>
    <v>       0.12383050       0.37265676       0.87446629 </v>
    <v>       0.37726923       0.12921716       0.87582122 </v>
    <v>       0.37524991       0.37421045       0.62419485 </v>
    <v>       0.12736822       0.62562386       0.11958327 </v>
    <v>       0.12546960       0.87283325       0.37336017 </v>
    <v>       0.37275395       0.62263860       0.37855744 </v>
    <v>       0.37751161       0.87397171       0.12873708 </v>
    <v>       0.12327067       0.62114836       0.62290983 </v>
    <v>       0.12649806       0.87461731       0.87649844 </v>
    <v>       0.37294213       0.62549211       0.87765107 </v>
    <v>       0.37685838       0.87896877       0.62449847 </v>
    <v>       0.62803759       0.12289275       0.12401886 </v>
    <v>       0.62259826       0.37395136       0.37093308 </v>
    <v>       0.87673808       0.12323433       0.37614874 </v>
    <v>       0.87881552       0.37684907       0.12414062 </v>
    <v>       0.62699605       0.12013665       0.62148702 </v>
    <v>       0.62792473       0.37677658       0.87040074 </v>
    <v>       0.87525649       0.12555848       0.87936268 </v>
    <v>       0.87836423       0.37309926       0.62239683 </v>
    <v>       0.62538488       0.62760403       0.12601781 </v>
    <v>       0.62381124       0.87395441       0.37232539 </v>
    <v>       0.87789767       0.62904388       0.37316587 </v>
    <v>       0.87473632       0.87246070       0.12656079 </v>
    <v>       0.62457910       0.62633062       0.62600651 </v>
    <v>       0.62725577       0.87656238       0.87525981 </v>
    <v>       0.87396333       0.62182288       0.87291900 </v>
    <v>       0.87232054       0.87587585       0.62468932 </v>
    <v>       0.00013929       0.99900041       0.99749599 </v>
    <v>       0.99949193       0.24912675       0.25272617 </v>
    <v>       0.24916901       0.99740173       0.25053300 </v>
    <v>       0.24769945       0.24740617       0.99812615 </v>
    <v>       0.99984335       0.99876311       0.49818527 </v>
    <v>       0.00182560       0.24605241       0.75114160 </v>
    <v>       0.25199124       0.00347005       0.75011304 </v>
    <v>       0.24525121       0.25125886       0.50126685 </v>
    <v>       0.99949814       0.50100768       0.99952761 </v>
    <v>       0.00446812       0.75187072       0.24888105 </v>
    <v>       0.24794201       0.50431168       0.24974076 </v>
    <v>       0.24516219       0.74636751       0.00380651 </v>
    <v>       0.99937611       0.50224554       0.49629825 </v>
    <v>       0.00252825       0.74695737       0.74827181 </v>
    <v>       0.24936284       0.50093289       0.75198368 </v>
    <v>       0.24899887       0.75103306       0.49825439 </v>
    <v>       0.50594712       0.00068716       0.00149002 </v>
    <v>       0.50024868       0.24806669       0.25344905 </v>
    <v>       0.74741141       0.00114934       0.24802926 </v>
    <v>       0.75012955       0.25031557       0.99825163 </v>
    <v>       0.50111540       0.00151488       0.50106388 </v>
    <v>       0.50321769       0.24606840       0.75364203 </v>
    <v>       0.75242965       0.99862618       0.74982205 </v>
    <v>       0.74868218       0.24695050       0.49993218 </v>
    <v>       0.50199044       0.50158617       0.99352059 </v>
    <v>       0.49791156       0.75201658       0.25114464 </v>
    <v>       0.74632843       0.50540931       0.24780555 </v>
    <v>       0.75056334       0.74653786       0.99586233 </v>
    <v>       0.49909727       0.49856523       0.49710364 </v>
    <v>       0.49860200       0.75312363       0.74662772 </v>
    <v>       0.75233570       0.49990264       0.75086595 </v>
    <v>       0.74767576       0.74708985       0.50452932 </v>
   </varray>
  </structure>
  <varray name="primitive_index" >
   <v type="int" >        1 </v>
   <v type="int" >        2 </v>
   <v type="int" >        3 </v>
   <v type="int" >        4 </v>
   <v type="int" >        5 </v>
   <v type="int" >        6 </v>
   <v type="int" >        7 </v>
   <v type="int" >        8 </v>
   <v type="int" >        9 </v>
   <v type="int" >       10 </v>
   <v type="int" >       11 </v>
   <v type="int" >       12 </v>
   <v type="int" >       13 </v>
   <v type="int" >       14 </v>
   <v type="int" >       15 </v>
   <v type="int" >       16 </v>
   <v type="int" >       17 </v>
   <v type="int" >       18 </v>
   <v type="int" >       19 </v>
   <v type="int" >       20 </v>
   <v type="int" >       21 </v>
   <v type="int" >       22 </v>
   <v type="int" >       23 </v>
   <v type="int" >       24 </v>
   <v type="int" >       25 </v>
   <v type="int" >       26 </v>
   <v type="int" >       27 </v>
   <v type="int" >       28 </v>
   <v type="int" >       29 </v>
   <v type="int" >       30 </v>
   <v type="int" >       31 </v>
   <v type="int" >       32 </v>
   <v type="int" >       33 </v>
   <v type="int" >       34 </v>
   <v type="int" >       35 </v>
   <v type="int" >       36 </v>
   <v type="int" >       37 </v>
   <v type="int" >       38 </v>
   <v type="int" >       39 </v>
   <v type="int" >       40 </v>
   <v type="int" >       41 </v>
   <v type="int" >       42 </v>
   <v type="int" >       43 </v>
   <v type="int" >       44 </v>
   <v type="int" >       45 </v>
   <v type="int" >       46 </v>
   <v type="int" >       47 </v>
   <v type="int" >       48 </v>
   <v type="int" >       49 </v>
   <v type="int" >       50 </v>
   <v type="int" >       51 </v>
   <v type="int" >       52 </v>
   <v type="int" >       53 </v>
   <v type="int" >       54 </v>
   <v type="int" >       55 </v>
   <v type="int" >       56 </v>
   <v type="int" >       57 </v>
   <v type="int" >       58 </v>
   <v type="int" >       59 </v>
   <v type="int" >       60 </v>
   <v type="int" >       61 </v>
   <v type="int" >       62 </v>
   <v type="int" >       63 </v>
   <v type="int" >       64 </v>
  </varray>
 </primitive_cell>
 <kpoints>
  <generation param="Monkhorst-Pack">
   <v type="int" name="divisions">       3        3        3 </v>
   <v name="usershift">      0.00000000       0.00000000       0.00000000 </v>
   <v name="genvec1">      0.33333333       0.00000000       0.00000000 </v>
   <v name="genvec2">      0.00000000       0.33333333       0.00000000 </v>
   <v name="genvec3">      0.00000000       0.00000000       0.33333333 </v>
   <v name="shift">      0.00000000       0.00000000       0.00000000 </v>
  </generation>
  <varray name="kpointlist" >
   <v>       0.00000000       0.00000000       0.00000000 </v>
   <v>       0.33333333       0.00000000       0.00000000 </v>
   <v>       0.00000000       0.33333333       0.00000000 </v>
   <v>       0.00000000       0.00000000       0.33333333 </v>
   <v>       0.33333333       0.33333333       0.00000000 </v>
   <v>       0.00000000       0.33333333       0.33333333 </v>
   <v>       0.33333333       0.00000000       0.33333333 </v>
   <v>      -0.33333333       0.33333333       0.00000000 </v>
   <v>      -0.33333333       0.00000000       0.33333333 </v>
   <v>       0.00000000      -0.33333333       0.33333333 </v>
   <v>       0.33333333       0.33333333       0.33333333 </v>
   <v>      -0.33333333       0.33333333       0.33333333 </v>
   <v>      -0.33333333      -0.33333333       0.33333333 </v>
   <v>       0.33333333      -0.33333333       0.33333333 </v>
  </varray>
  <varray name="weights" >
   <v>       0.03703704 </v>
   <v>       0.07407407 </v>
   <v>       0.07407407 </v>
   <v>       0.07407407 </v>
   <v>       0.07407407 </v>
   <v>       0.07407407 </v>
   <v>       0.07407407 </v>
   <v>       0.07407407 </v>
   <v>       0.07407407 </v>
   <v>       0.07407407 </v>
   <v>       0.07407407 </v>
   <v>       0.07407407 </v>
   <v>       0.07407407 </v>
   <v>       0.07407407 </v>
  </varray>
 </kpoints>
 <parameters>
  <separator name="general" >
   <i type="string" name="SYSTEM">unknown system</i>
   <i type="logical" name="LCOMPAT"> F  </i>
  </separator>
  <separator name="electronic" >
   <i type="string" name="PREC">normal</i>
   <i name="ENMAX">    400.00000000</i>
   <i name="ENAUG">    644.87300000</i>
   <i name="EDIFF">      0.00000001</i>
   <i type="int" name="IALGO">    38</i>
   <i type="int" name="IWAVPR">    10</i>
   <i type="int" name="NBANDS">   168</i>
   <i type="int" name="NBANDSLOW">    -1</i>
   <i type="int" name="NBANDSHIGH">    -1</i>
   <i name="NELECT">    256.00000000</i>
   <i type="int" name="TURBO">     0</i>
   <i type="int" name="IRESTART">     0</i>
   <i type="int" name="NREBOOT">     0</i>
   <i type="int" name="NMIN">     0</i>
   <i name="EREF">      0.00000000</i>
   <separator name="electronic smearing" >
    <i type="int" name="ISMEAR">     1</i>
    <i name="SIGMA">      0.20000000</i>
    <i name="KSPACING">      0.50000000</i>
    <i type="logical" name="KGAMMA"> T  </i>
    <i type="logical" name="KBLOWUP"> T  </i>
   </separator>
   <separator name="electronic projectors" >
    <i type="logical" name="LREAL"> F  </i>
    <v name="ROPT">      0.00000000      0.00000000</v>
    <i type="int" name="LMAXPAW">  -100</i>
    <i type="int" name="LMAXMIX">     2</i>
    <i type="logical" name="NLSPLINE"> F  </i>
   </separator>
   <separator name="electronic startup" >
    <i type="int" name="ISTART">     0</i>
    <i type="int" name="ICHARG">     2</i>
    <i type="int" name="INIWAV">     1</i>
   </separator>
   <separator name="electronic spin" >
    <i type="int" name="ISPIN">     1</i>
    <i type="logical" name="LNONCOLLINEAR"> F  </i>
    <v name="MAGMOM">      1.00000000      1.00000000      1.00000000      1.00000000      1.00000000      1.00000000      1.00000000      1.00000000      1.00000000      1.00000000      1.00000000      1.00000000      1.00000000      1.00000000      1.00000000      1.00000000      1.00000000      1.00000000      1.00000000      1.00000000
      1.00000000      1.00000000      1.00000000      1.00000000      1.00000000      1.00000000      1.00000000      1.00000000      1.00000000      1.00000000      1.00000000      1.00000000      1.00000000      1.00000000      1.00000000      1.00000000      1.00000000      1.00000000      1.00000000      1.00000000
      1.00000000      1.00000000      1.00000000      1.00000000      1.00000000      1.00000000      1.00000000      1.00000000      1.00000000      1.00000000      1.00000000      1.00000000      1.00000000      1.00000000      1.00000000      1.00000000      1.00000000      1.00000000      1.00000000      1.00000000
      1.00000000      1.00000000      1.00000000      1.00000000</v>
    <i name="NUPDOWN">     -1.00000000</i>
    <i type="logical" name="LSORBIT"> F  </i>
    <v name="SAXIS">      0.00000000      0.00000000      1.00000000</v>
    <i type="logical" name="LSPIRAL"> F  </i>
    <v name="QSPIRAL">      0.00000000      0.00000000      0.00000000</v>
    <i type="logical" name="LZEROZ"> F  </i>
   </separator>
   <separator name="electronic exchange-correlation" >
    <i type="logical" name="LASPH"> F  </i>
    <i type="logical" name="LMETAGGA"> F  </i>
   </separator>
   <separator name="electronic convergence" >
    <i type="int" name="NELM">    60</i>
    <i type="int" name="NELMDL">    -5</i>
    <i type="int" name="NELMIN">     2</i>
    <i name="ENINI">    400.00000000</i>
    <separator name="electronic convergence detail" >
     <i type="logical" name="LDIAG"> T  </i>
     <i type="logical" name="LSUBROT"> F  </i>
     <i name="WEIMIN">      0.00000000</i>
     <i name="EBREAK">      0.00000000</i>
     <i name="DEPER">      0.30000000</i>
     <i type="int" name="NRMM">     4</i>
     <i name="TIME">      0.40000000</i>
    </separator>
   </separator>
   <separator name="electronic mixer" >
    <i name="AMIX">      0.40000000</i>
    <i name="BMIX">      1.00000000</i>
    <i name="AMIN">      0.10000000</i>
    <i name="AMIX_MAG">      1.60000000</i>
    <i name="BMIX_MAG">      1.00000000</i>
    <separator name="electronic mixer details" >
     <i type="int" name="IMIX">     4</i>
     <i type="logical" name="MIXFIRST"> F  </i>
     <i type="int" name="MAXMIX">   -45</i>
     <i name="WC">    100.00000000</i>
     <i type="int" name="INIMIX">     1</i>
     <i type="int" name="MIXPRE">     1</i>
     <i type="int" name="MREMOVE">     5</i>
    </separator>
   </separator>
   <separator name="electronic dipolcorrection" >
    <i type="logical" name="LDIPOL"> F  </i>
    <i type="logical" name="LMONO"> F  </i>
    <i type="int" name="IDIPOL">     0</i>
    <i name="EPSILON">      1.00000000</i>
    <v name="DIPOL">   -100.00000000   -100.00000000   -100.00000000</v>
    <i name="EFIELD">      0.00000000</i>
   </separator>
  </separator>
  <separator name="grids" >
   <i type="int" name="NGX">    48</i>
   <i type="int" name="NGY">    48</i>
   <i type="int" name="NGZ">    48</i>
   <i type="int" name="NGXF">    96</i>
   <i type="int" name="NGYF">    96</i>
   <i type="int" name="NGZF">    96</i>
   <i type="logical" name="ADDGRID"> F  </i>
  </separator>
  <separator name="ionic" >
   <i type="int" name="NSW">     0</i>
   <i type="int" name="IBRION">    -1</i>
   <i type="int" name="MDALGO">     0</i>
   <i type="int" name="ISIF">     3</i>
   <i name="PSTRESS">      0.00000000</i>
   <i name="EDIFFG">      0.00000010</i>
   <i type="int" name="NFREE">     0</i>
   <i name="POTIM">      0.50000000</i>
   <i name="SMASS">     -3.00000000</i>
   <i name="SCALEE">      1.00000000</i>
  </separator>
  <separator name="ionic md" >
   <i name="TEBEG">      0.00010000</i>
   <i name="TEEND">      0.00010000</i>
   <i type="int" name="NBLOCK">     1</i>
   <i type="int" name="KBLOCK">     1</i>
   <i type="int" name="NPACO">   256</i>
   <i name="APACO">     16.00000000</i>
  </separator>
  <separator name="symmetry" >
   <i type="int" name="ISYM">     0</i>
   <i name="SYMPREC">      0.00001000</i>
  </separator>
  <separator name="dos" >
   <i type="int" name="LORBIT">     0</i>
   <v name="RWIGS">     -1.00000000     -1.00000000</v>
   <i type="int" name="NEDOS">   301</i>
   <i name="EMIN">     10.00000000</i>
   <i name="EMAX">    -10.00000000</i>
   <i name="EFERMI">      0.00000000</i>
  </separator>
  <separator name="writing" >
   <i type="int" name="NWRITE">     2</i>
   <i type="logical" name="LWAVE"> F  </i>
   <i type="logical" name="LDOWNSAMPLE"> F  </i>
   <i type="logical" name="LCHARG"> F  </i>
   <i type="logical" name="LPARD"> F  </i>
   <i type="logical" name="LVTOT"> F  </i>
   <i type="logical" name="LVHAR"> F  </i>
   <i type="logical" name="LELF"> F  </i>
   <i type="logical" name="LOPTICS"> F  </i>
   <v name="STM">      0.00000000      0.00000000      0.00000000      0.00000000      0.00000000      0.00000000      0.00000000</v>
  </separator>
  <separator name="performance" >
   <i type="int" name="NPAR">     8</i>
   <i type="int" name="NSIM">     4</i>
   <i type="int" name="NBLK">    -1</i>
   <i type="logical" name="LPLANE"> T  </i>
   <i type="logical" name="LSCALAPACK"> T  </i>
   <i type="logical" name="LSCAAWARE"> F  </i>
   <i type="logical" name="LSCALU"> F  </i>
   <i type="logical" name="LASYNC"> F  </i>
   <i type="logical" name="LORBITALREAL"> F  </i>
  </separator>
  <separator name="miscellaneous" >
   <i type="int" name="IDIOT">     3</i>
   <i type="int" name="PHON_NSTRUCT">    -1</i>
   <i type="logical" name="LMUSIC"> F  </i>
   <v name="POMASS">     12.01100000     28.08500000</v>
   <v name="DARWINR">      0.00000000      0.00000000</v>
   <v name="DARWINV">      1.00000000      1.00000000</v>
   <i type="logical" name="LCORR"> T  </i>
  </separator>
  <i type="logical" name="GGA_COMPAT"> T  </i>
  <i type="logical" name="LBERRY"> F  </i>
  <i type="int" name="ICORELEVEL">     0</i>
  <i type="logical" name="LDAU"> F  </i>
  <i type="int" name="I_CONSTRAINED_M">     0</i>
  <separator name="electronic exchange-correlation" >
   <i type="string" name="GGA">PE</i>
   <i type="int" name="VOSKOWN">     0</i>
   <i type="logical" name="LHFCALC"> F  </i>
   <i type="string" name="PRECFOCK"></i>
   <i type="logical" name="LSYMGRAD"> F  </i>
   <i type="logical" name="LHFONE"> F  </i>
   <i type="logical" name="LRHFCALC"> F  </i>
   <i type="logical" name="LTHOMAS"> F  </i>
   <i type="logical" name="LMODELHF"> F  </i>
   <i type="logical" name="LFOCKACE"> F  </i>
   <i name="ENCUT4O">     -1.00000000</i>
   <i type="int" name="EXXOEP">     0</i>
   <i type="int" name="FOURORBIT">     0</i>
   <i name="AEXX">      0.00000000</i>
   <i name="HFALPHA">      0.00000000</i>
   <i name="MCALPHA">      0.00000000</i>
   <i name="ALDAX">      1.00000000</i>
   <i name="AGGAX">      1.00000000</i>
   <i name="ALDAC">      1.00000000</i>
   <i name="AGGAC">      1.00000000</i>
   <i type="int" name="NKREDX">     1</i>
   <i type="int" name="NKREDY">     1</i>
   <i type="int" name="NKREDZ">     1</i>
   <i type="logical" name="SHIFTRED"> F  </i>
   <i type="logical" name="ODDONLY"> F  </i>
   <i type="logical" name="EVENONLY"> F  </i>
   <i type="int" name="LMAXFOCK">     0</i>
   <i type="int" name="NMAXFOCKAE">     0</i>
   <i type="logical" name="LFOCKAEDFT"> F  </i>
   <i name="HFSCREEN">      0.00000000</i>
   <i name="HFSCREENC">      0.00000000</i>
   <i type="int" name="NBANDSGWLOW">     0</i>
  </separator>
  <separator name="vdW DFT" >
   <i type="logical" name="LUSE_VDW"> F  </i>
   <i name="Zab_VDW">     -0.84910000</i>
   <i name="PARAM1">      0.12340000</i>
   <i name="PARAM2">      1.00000000</i>
   <i name="PARAM3">      0.00000000</i>
  </separator>
  <separator name="model GW" >
   <i type="int" name="MODEL_GW">     0</i>
   <i name="MODEL_EPS0">      6.26613487</i>
   <i name="MODEL_ALPHA">      1.00000000</i>
  </separator>
  <separator name="linear response parameters" >
   <i type="logical" name="LEPSILON"> F  </i>
   <i type="logical" name="LRPA"> F  </i>
   <i type="logical" name="LNABLA"> F  </i>
   <i type="logical" name="LVEL"> F  </i>
   <i type="int" name="KINTER">     0</i>
   <i name="CSHIFT">      0.10000000</i>
   <i name="OMEGAMAX">     -1.00000000</i>
   <i name="DEG_THRESHOLD">      0.00200000</i>
   <i name="RTIME">     -0.10000000</i>
   <i name="WPLASMAI">      0.00000000</i>
   <v name="DFIELD">      0.00000000      0.00000000      0.00000000</v>
   <v name="WPLASMA">      0.00000000      0.00000000      0.00000000      0.00000000      0.00000000      0.00000000      0.00000000      0.00000000      0.00000000</v>
  </separator>
  <separator name="orbital magnetization" >
   <i type="logical" name="NUCIND"> F  </i>
   <v name="MAGPOS">      0.00000000      0.00000000      0.00000000</v>
   <i type="logical" name="LNICSALL"> T  </i>
   <i type="logical" name="ORBITALMAG"> F  </i>
   <i type="logical" name="LMAGBLOCH"> F  </i>
   <i type="logical" name="LCHIMAG"> F  </i>
   <i type="logical" name="LGAUGE"> T  </i>
   <i type="int" name="MAGATOM">     0</i>
   <v name="MAGDIPOL">      0.00000000      0.00000000      0.00000000</v>
   <v name="AVECCONST">      0.00000000      0.00000000      0.00000000</v>
  </separator>
  <separator name="response functions" >
   <i type="logical" name="LFINITE_TEMPERATURE"> F  </i>
   <i type="logical" name="LADDER"> F  </i>
   <i type="logical" name="LRPAFORCE"> F  </i>
   <i type="logical" name="LFXC"> F  </i>
   <i type="logical" name="LHARTREE"> T  </i>
   <i type="int" name="IBSE">     0</i>
   <v type="int" name="KPOINT">    -1     0     0     0</v>
   <i type="logical" name="LTCTC"> F  </i>
   <i type="logical" name="LTCTE"> F  </i>
   <i type="logical" name="LTETE"> F  </i>
   <i type="logical" name="LTRIPLET"> F  </i>
   <i type="logical" name="LFXCEPS"> F  </i>
   <i type="logical" name="LFXHEG"> F  </i>
   <i type="int" name="NATURALO">     2</i>
   <i type="logical" name="LHOLEGF"> F  </i>
   <i type="logical" name="L2ORDER"> F  </i>
   <i type="logical" name="LDMP1"> F  </i>
   <i type="logical" name="LMP2LT"> F  </i>
   <i type="logical" name="LSMP2LT"> F  </i>
   <i type="logical" name="LGWLF"> F  </i>
   <i name="ENCUTGW">     -2.00000000</i>
   <i name="ENCUTGWSOFT">     -2.00000000</i>
   <i name="ENCUTLF">     -1.00000000</i>
   <i type="logical" name="LESF_SPLINES"> F  </i>
   <i type="int" name="LMAXMP2">    -1</i>
   <i name="SCISSOR">      0.00000000</i>
   <i type="int" name="NOMEGA">     0</i>
   <i type="int" name="NOMEGAR">     0</i>
   <i type="int" name="NBANDSGW">    -1</i>
   <i type="int" name="NBANDSO">    -1</i>
   <i type="int" name="NBANDSV">    -1</i>
   <i type="int" name="NELM">    60</i>
   <i type="int" name="NELMHF">     1</i>
   <i type="int" name="DIM">     3</i>
   <i type="int" name="IESPILON">     4</i>
   <i type="int" name="ANTIRES">     0</i>
   <i name="OMEGAMAX">    -30.00000000</i>
   <i name="OMEGAMIN">    -30.00000000</i>
   <i name="OMEGATL">   -200.00000000</i>
   <i type="int" name="OMEGAGRID">     0</i>
   <i name="CSHIFT">     -0.10000000</i>
   <i type="logical" name="LSELFENERGY"> F  </i>
   <i type="logical" name="LSPECTRAL"> F  </i>
   <i type="logical" name="LSPECTRALGW"> F  </i>
   <i type="logical" name="LSINGLES"> F  </i>
   <i type="logical" name="LFERMIGW"> F  </i>
   <i type="logical" name="ODDONLYGW"> F  </i>
   <i type="logical" name="EVENONLYGW"> F  </i>
   <i type="int" name="NKREDLFX">     1</i>
   <i type="int" name="NKREDLFY">     1</i>
   <i type="int" name="NKREDLFZ">     1</i>
   <i type="int" name="MAXMEM">  2800</i>
   <i type="int" name="TELESCOPE">     0</i>
   <i type="int" name="NTAUPAR">    -1</i>
   <i type="int" name="NOMEGAPAR">    -1</i>
   <i name="DAMP_NEWTON">      0.80000001</i>
   <i name="LAMBDA">      1.00000000</i>
  </separator>
  <separator name="External order field" >
   <i name="OFIELD_KAPPA">      0.00000000</i>
   <v name="OFIELD_K">      0.00000000      0.00000000      0.00000000</v>
   <i name="OFIELD_Q6_NEAR">      0.00000000</i>
   <i name="OFIELD_Q6_FAR">      0.00000000</i>
   <i name="OFIELD_A">      0.00000000</i>
  </separator>
 </parameters>
 <atominfo>
  <atoms>      64 </atoms>
  <types>       2 </types>
  <array name="atoms" >
   <dimension dim="1">ion</dimension>
   <field type="string">element</field>
   <field type="int">atomtype</field>
   <set>
    <rc><c>C </c><c>   1</c></rc>
    <rc><c>C </c><c>   1</c></rc>
    <rc><c>C </c><c>   1</c></rc>
    <rc><c>C </c><c>   1</c></rc>
    <rc><c>C </c><c>   1</c></rc>
    <rc><c>C </c><c>   1</c></rc>
    <rc><c>C </c><c>   1</c></rc>
    <rc><c>C </c><c>   1</c></rc>
    <rc><c>C </c><c>   1</c></rc>
    <rc><c>C </c><c>   1</c></rc>
    <rc><c>C </c><c>   1</c></rc>
    <rc><c>C </c><c>   1</c></rc>
    <rc><c>C </c><c>   1</c></rc>
    <rc><c>C </c><c>   1</c></rc>
    <rc><c>C </c><c>   1</c></rc>
    <rc><c>C </c><c>   1</c></rc>
    <rc><c>C </c><c>   1</c></rc>
    <rc><c>C </c><c>   1</c></rc>
    <rc><c>C </c><c>   1</c></rc>
    <rc><c>C </c><c>   1</c></rc>
    <rc><c>C </c><c>   1</c></rc>
    <rc><c>C </c><c>   1</c></rc>
    <rc><c>C </c><c>   1</c></rc>
    <rc><c>C </c><c>   1</c></rc>
    <rc><c>C </c><c>   1</c></rc>
    <rc><c>C </c><c>   1</c></rc>
    <rc><c>C </c><c>   1</c></rc>
    <rc><c>C </c><c>   1</c></rc>
    <rc><c>C </c><c>   1</c></rc>
    <rc><c>C </c><c>   1</c></rc>
    <rc><c>C </c><c>   1</c></rc>
    <rc><c>C </c><c>   1</c></rc>
    <rc><c>Si</c><c>   2</c></rc>
    <rc><c>Si</c><c>   2</c></rc>
    <rc><c>Si</c><c>   2</c></rc>
    <rc><c>Si</c><c>   2</c></rc>
    <rc><c>Si</c><c>   2</c></rc>
    <rc><c>Si</c><c>   2</c></rc>
    <rc><c>Si</c><c>   2</c></rc>
    <rc><c>Si</c><c>   2</c></rc>
    <rc><c>Si</c><c>   2</c></rc>
    <rc><c>Si</c><c>   2</c></rc>
    <rc><c>Si</c><c>   2</c></rc>
    <rc><c>Si</c><c>   2</c></rc>
    <rc><c>Si</c><c>   2</c></rc>
    <rc><c>Si</c><c>   2</c></rc>
    <rc><c>Si</c><c>   2</c></rc>
    <rc><c>Si</c><c>   2</c></rc>
    <rc><c>Si</c><c>   2</c></rc>
    <rc><c>Si</c><c>   2</c></rc>
    <rc><c>Si</c><c>   2</c></rc>
    <rc><c>Si</c><c>   2</c></rc>
    <rc><c>Si</c><c>   2</c></rc>
    <rc><c>Si</c><c>   2</c></rc>
    <rc><c>Si</c><c>   2</c></rc>
    <rc><c>Si</c><c>   2</c></rc>
    <rc><c>Si</c><c>   2</c></rc>
    <rc><c>Si</c><c>   2</c></rc>
    <rc><c>Si</c><c>   2</c></rc>
    <rc><c>Si</c><c>   2</c></rc>
    <rc><c>Si</c><c>   2</c></rc>
    <rc><c>Si</c><c>   2</c></rc>
    <rc><c>Si</c><c>   2</c></rc>
    <rc><c>Si</c><c>   2</c></rc>
   </set>
  </array>
  <array name="atomtypes" >
   <dimension dim="1">type</dimension>
   <field type="int">atomspertype</field>
   <field type="string">element</field>
   <field>mass</field>
   <field>valence</field>
   <field type="string">pseudopotential</field>
   <set>
    <rc><c>  32</c><c>C </c><c>     12.01100000</c><c>      4.00000000</c><c>  PAW_PBE C 08Apr2002                   </c></rc>
    <rc><c>  32</c><c>Si</c><c>     28.08500000</c><c>      4.00000000</c><c>  PAW_PBE Si 05Jan2001                  </c></rc>
   </set>
  </array>
 </atominfo>
 <structure name="initialpos" >
  <crystal>
   <varray name="basis" >
    <v>       8.74331558       0.00000000       0.00000000 </v>
    <v>       0.00000000       8.74331558       0.00000000 </v>
    <v>       0.00000000       0.00000000       8.74331558 </v>
   </varray>
   <i name="volume">    668.38771987 </i>
   <varray name="rec_basis" >
    <v>       0.11437309       0.00000000       0.00000000 </v>
    <v>       0.00000000       0.11437309       0.00000000 </v>
    <v>       0.00000000       0.00000000       0.11437309 </v>
   </varray>
  </crystal>
  <varray name="positions" >
   <v>       0.12806373       0.12278634       0.12450769 </v>
   <v>       0.12800114       0.37467470       0.37663231 </v>
   <v>       0.37517717       0.12574054       0.37638021 </v>
   <v>       0.37652585       0.37411071       0.12299943 </v>
   <v>       0.12416468       0.12669989       0.62673450 </v>
   <v>       0.12383050       0.37265676       0.87446629 </v>
   <v>       0.37726923       0.12921716       0.87582122 </v>
   <v>       0.37524991       0.37421045       0.62419485 </v>
   <v>       0.12736822       0.62562386       0.11958327 </v>
   <v>       0.12546960       0.87283325       0.37336017 </v>
   <v>       0.37275395       0.62263860       0.37855744 </v>
   <v>       0.37751161       0.87397171       0.12873708 </v>
   <v>       0.12327067       0.62114836       0.62290983 </v>
   <v>       0.12649806       0.87461731       0.87649844 </v>
   <v>       0.37294213       0.62549211       0.87765107 </v>
   <v>       0.37685838       0.87896877       0.62449847 </v>
   <v>       0.62803759       0.12289275       0.12401886 </v>
   <v>       0.62259826       0.37395136       0.37093308 </v>
   <v>       0.87673808       0.12323433       0.37614874 </v>
   <v>       0.87881552       0.37684907       0.12414062 </v>
   <v>       0.62699605       0.12013665       0.62148702 </v>
   <v>       0.62792473       0.37677658       0.87040074 </v>
   <v>       0.87525649       0.12555848       0.87936268 </v>
   <v>       0.87836423       0.37309926       0.62239683 </v>
   <v>       0.62538488       0.62760403       0.12601781 </v>
   <v>       0.62381124       0.87395441       0.37232539 </v>
   <v>       0.87789767       0.62904388       0.37316587 </v>
   <v>       0.87473632       0.87246070       0.12656079 </v>
   <v>       0.62457910       0.62633062       0.62600651 </v>
   <v>       0.62725577       0.87656238       0.87525981 </v>
   <v>       0.87396333       0.62182288       0.87291900 </v>
   <v>       0.87232054       0.87587585       0.62468932 </v>
   <v>       0.00013929       0.99900041       0.99749599 </v>
   <v>       0.99949193       0.24912675       0.25272617 </v>
   <v>       0.24916901       0.99740173       0.25053300 </v>
   <v>       0.24769945       0.24740617       0.99812615 </v>
   <v>       0.99984335       0.99876311       0.49818527 </v>
   <v>       0.00182560       0.24605241       0.75114160 </v>
   <v>       0.25199124       0.00347005       0.75011304 </v>
   <v>       0.24525121       0.25125886       0.50126685 </v>
   <v>       0.99949814       0.50100768       0.99952761 </v>
   <v>       0.00446812       0.75187072       0.24888105 </v>
   <v>       0.24794201       0.50431168       0.24974076 </v>
   <v>       0.24516219       0.74636751       0.00380651 </v>
   <v>       0.99937611       0.50224554       0.49629825 </v>
   <v>       0.00252825       0.74695737       0.74827181 </v>
   <v>       0.24936284       0.50093289       0.75198368 </v>
   <v>       0.24899887       0.75103306       0.49825439 </v>
   <v>       0.50594712       0.00068716       0.00149002 </v>
   <v>       0.50024868       0.24806669       0.25344905 </v>
   <v>       0.74741141       0.00114934       0.24802926 </v>
   <v>       0.75012955       0.25031557       0.99825163 </v>
   <v>       0.50111540       0.00151488       0.50106388 </v>
   <v>       0.50321769       0.24606840       0.75364203 </v>
   <v>       0.75242965       0.99862618       0.74982205 </v>
   <v>       0.74868218       0.24695050       0.49993218 </v>
   <v>       0.50199044       0.50158617       0.99352059 </v>
   <v>       0.49791156       0.75201658       0.25114464 </v>
   <v>       0.74632843       0.50540931       0.24780555 </v>
   <v>       0.75056334       0.74653786       0.99586233 </v>
   <v>       0.49909727       0.49856523       0.49710364 </v>
   <v>       0.49860200       0.75312363       0.74662772 </v>
   <v>       0.75233570       0.49990264       0.75086595 </v>
   <v>       0.74767576       0.74708985       0.50452932 </v>
  </varray>
 </structure>
 <calculation>
  <scstep>
   <time name="dav">    4.82    4.82</time>
   <time name="total">    4.85    4.85</time>
   <energy>
    <i name="alphaZ">    354.85177120 </i>
    <i name="ewald">  -9080.59645460 </i>
    <i name="hartreedc">   -672.22388422 </i>
    <i name="XCdc">    145.85937678 </i>
    <i name="pawpsdc">   6292.66707184 </i>
    <i name="pawaedc">  -5747.90303932 </i>
    <i name="eentropy">      0.00873036 </i>
    <i name="bandstr">   1370.51750002 </i>
    <i name="atom">   8006.17504320 </i>
    <i name="e_fr_energy">    669.35611525 </i>
    <i name="e_wo_entrp">    669.34738490 </i>
    <i name="e_0_energy">    669.35320513 </i>
   </energy>
  </scstep>
  <scstep>
   <time name="dav">    5.65    5.66</time>
   <time name="total">    5.65    5.66</time>
   <energy>
    <i name="e_fr_energy">   -462.58273514 </i>
    <i name="e_wo_entrp">   -462.59779044 </i>
    <i name="e_0_energy">   -462.58775357 </i>
   </energy>
  </scstep>
  <scstep>
   <time name="dav">    5.53    5.53</time>
   <time name="total">    5.53    5.54</time>
   <energy>
    <i name="e_fr_energy">   -537.66790242 </i>
    <i name="e_wo_entrp">   -537.68836229 </i>
    <i name="e_0_energy">   -537.67472238 </i>
   </energy>
  </scstep>
  <scstep>
   <time name="dav">    5.54    5.54</time>
   <time name="total">    5.55    5.55</time>
   <energy>
    <i name="e_fr_energy">   -539.32448711 </i>
    <i name="e_wo_entrp">   -539.34564762 </i>
    <i name="e_0_energy">   -539.33154061 </i>
   </energy>
  </scstep>
  <scstep>
   <time name="dav">    5.42    5.42</time>
   <time name="total">    5.53    5.53</time>
   <energy>
    <i name="e_fr_energy">   -539.37151376 </i>
    <i name="e_wo_entrp">   -539.39264757 </i>
    <i name="e_0_energy">   -539.37855836 </i>
   </energy>
  </scstep>
  <scstep>
   <time name="dav">    5.28    5.28</time>
   <time name="total">    5.73    5.74</time>
   <energy>
    <i name="e_fr_energy">   -482.68108612 </i>
    <i name="e_wo_entrp">   -482.69179476 </i>
    <i name="e_0_energy">   -482.68465566 </i>
   </energy>
  </scstep>
  <scstep>
   <time name="dav">    5.66    5.66</time>
   <time name="total">    5.83    5.83</time>
   <energy>
    <i name="e_fr_energy">   -481.31928142 </i>
    <i name="e_wo_entrp">   -481.32890024 </i>
    <i name="e_0_energy">   -481.32248770 </i>
   </energy>
  </scstep>
  <scstep>
   <time name="dav">    5.29    5.29</time>
   <time name="total">    5.45    5.45</time>
   <energy>
    <i name="e_fr_energy">   -481.09198690 </i>
    <i name="e_wo_entrp">   -481.10180514 </i>
    <i name="e_0_energy">   -481.09525964 </i>
   </energy>
  </scstep>
  <scstep>
   <time name="dav">    5.35    5.35</time>
   <time name="total">    5.53    5.54</time>
   <energy>
    <i name="e_fr_energy">   -481.07540236 </i>
    <i name="e_wo_entrp">   -481.08511656 </i>
    <i name="e_0_energy">   -481.07864043 </i>
   </energy>
  </scstep>
  <scstep>
   <time name="dav">    5.48    5.48</time>
   <time name="total">    5.68    5.68</time>
   <energy>
    <i name="e_fr_energy">   -481.07862002 </i>
    <i name="e_wo_entrp">   -481.08832852 </i>
    <i name="e_0_energy">   -481.08185619 </i>
   </energy>
  </scstep>
  <scstep>
   <time name="dav">    5.16    5.16</time>
   <time name="total">    5.31    5.31</time>
   <energy>
    <i name="e_fr_energy">   -481.07951787 </i>
    <i name="e_wo_entrp">   -481.08922717 </i>
    <i name="e_0_energy">   -481.08275431 </i>
   </energy>
  </scstep>
  <scstep>
   <time name="dav">    5.61    5.61</time>
   <time name="total">    5.76    5.76</time>
   <energy>
    <i name="e_fr_energy">   -481.07953412 </i>
    <i name="e_wo_entrp">   -481.08924157 </i>
    <i name="e_0_energy">   -481.08276994 </i>
   </energy>
  </scstep>
  <scstep>
   <time name="dav">    5.14    5.14</time>
   <time name="total">    5.30    5.30</time>
   <energy>
    <i name="e_fr_energy">   -481.07954337 </i>
    <i name="e_wo_entrp">   -481.08925227 </i>
    <i name="e_0_energy">   -481.08277967 </i>
   </energy>
  </scstep>
  <scstep>
   <time name="dav">    5.26    5.26</time>
   <time name="total">    5.42    5.42</time>
   <energy>
    <i name="e_fr_energy">   -481.07954984 </i>
    <i name="e_wo_entrp">   -481.08925881 </i>
    <i name="e_0_energy">   -481.08278616 </i>
   </energy>
  </scstep>
  <scstep>
   <time name="dav">    5.51    5.51</time>
   <time name="total">    5.69    5.69</time>
   <energy>
    <i name="e_fr_energy">   -481.07955160 </i>
    <i name="e_wo_entrp">   -481.08926036 </i>
    <i name="e_0_energy">   -481.08278786 </i>
   </energy>
  </scstep>
  <scstep>
   <time name="dav">    5.59    5.59</time>
   <time name="total">    5.75    5.75</time>
   <energy>
    <i name="e_fr_energy">   -481.07955133 </i>
    <i name="e_wo_entrp">   -481.08926016 </i>
    <i name="e_0_energy">   -481.08278761 </i>
   </energy>
  </scstep>
  <scstep>
   <time name="dav">    5.03    5.03</time>
   <time name="total">    5.21    5.22</time>
   <energy>
    <i name="e_fr_energy">   -481.07955149 </i>
    <i name="e_wo_entrp">   -481.08926029 </i>
    <i name="e_0_energy">   -481.08278775 </i>
   </energy>
  </scstep>
  <scstep>
   <time name="dav">    3.36    3.36</time>
   <time name="total">    3.52    3.52</time>
   <energy>
    <i name="e_fr_energy">   -481.07955150 </i>
    <i name="e_wo_entrp">   -481.08926028 </i>
    <i name="e_0_energy">   -481.08278776 </i>
   </energy>
  </scstep>
  <scstep>
   <time name="dav">    3.32    3.32</time>
   <time name="total">    3.48    3.48</time>
   <energy>
    <i name="e_fr_energy">   -481.07955148 </i>
    <i name="e_wo_entrp">   -481.08926025 </i>
    <i name="e_0_energy">   -481.08278774 </i>
   </energy>
  </scstep>
  <scstep>
   <time name="dav">    3.32    3.32</time>
   <time name="total">    3.34    3.34</time>
   <energy>
    <i name="alphaZ">    354.85177120 </i>
    <i name="ewald">  -9080.59645460 </i>
    <i name="hartreedc">  -1025.05630537 </i>
    <i name="XCdc">    179.30914237 </i>
    <i name="pawpsdc">  33064.74946484 </i>
    <i name="pawaedc"> -32525.69344476 </i>
    <i name="eentropy">      0.00970878 </i>
    <i name="bandstr">    545.17152286 </i>
    <i name="atom">   8006.17504320 </i>
    <i name="e_fr_energy">   -481.07955148 </i>
    <i name="e_wo_entrp">   -481.08926026 </i>
    <i name="e_0_energy">   -481.08278774 </i>
   </energy>
  </scstep>
  <structure>
   <crystal>
    <varray name="basis" >
     <v>       8.74331558       0.00000000       0.00000000 </v>
     <v>       0.00000000       8.74331558       0.00000000 </v>
     <v>       0.00000000       0.00000000       8.74331558 </v>
    </varray>
    <i name="volume">    668.38771987 </i>
    <varray name="rec_basis" >
     <v>       0.11437309       0.00000000       0.00000000 </v>
     <v>       0.00000000       0.11437309       0.00000000 </v>
     <v>       0.00000000       0.00000000       0.11437309 </v>
    </varray>
   </crystal>
   <varray name="positions" >
    <v>       0.12806373       0.12278634       0.12450769 </v>
    <v>       0.12800114       0.37467470       0.37663231 </v>
    <v>       0.37517717       0.12574054       0.37638021 </v>
    <v>       0.37652585       0.37411071       0.12299943 </v>
    <v>       0.12416468       0.12669989       0.62673450 </v>
    <v>       0.12383050       0.37265676       0.87446629 </v>
    <v>       0.37726923       0.12921716       0.87582122 </v>
    <v>       0.37524991       0.37421045       0.62419485 </v>
    <v>       0.12736822       0.62562386       0.11958327 </v>
    <v>       0.12546960       0.87283325       0.37336017 </v>
    <v>       0.37275395       0.62263860       0.37855744 </v>
    <v>       0.37751161       0.87397171       0.12873708 </v>
    <v>       0.12327067       0.62114836       0.62290983 </v>
    <v>       0.12649806       0.87461731       0.87649844 </v>
    <v>       0.37294213       0.62549211       0.87765107 </v>
    <v>       0.37685838       0.87896877       0.62449847 </v>
    <v>       0.62803759       0.12289275       0.12401886 </v>
    <v>       0.62259826       0.37395136       0.37093308 </v>
    <v>       0.87673808       0.12323433       0.37614874 </v>
    <v>       0.87881552       0.37684907       0.12414062 </v>
    <v>       0.62699605       0.12013665       0.62148702 </v>
    <v>       0.62792473       0.37677658       0.87040074 </v>
    <v>       0.87525649       0.12555848       0.87936268 </v>
    <v>       0.87836423       0.37309926       0.62239683 </v>
    <v>       0.62538488       0.62760403       0.12601781 </v>
    <v>       0.62381124       0.87395441       0.37232539 </v>
    <v>       0.87789767       0.62904388       0.37316587 </v>
    <v>       0.87473632       0.87246070       0.12656079 </v>
    <v>       0.62457910       0.62633062       0.62600651 </v>
    <v>       0.62725577       0.87656238       0.87525981 </v>
    <v>       0.87396333       0.62182288       0.87291900 </v>
    <v>       0.87232054       0.87587585       0.62468932 </v>
    <v>       0.00013929       0.99900041       0.99749599 </v>
    <v>       0.99949193       0.24912675       0.25272617 </v>
    <v>       0.24916901       0.99740173       0.25053300 </v>
    <v>       0.24769945       0.24740617       0.99812615 </v>
    <v>       0.99984335       0.99876311       0.49818527 </v>
    <v>       0.00182560       0.24605241       0.75114160 </v>
    <v>       0.25199124       0.00347005       0.75011304 </v>
    <v>       0.24525121       0.25125886       0.50126685 </v>
    <v>       0.99949814       0.50100768       0.99952761 </v>
    <v>       0.00446812       0.75187072       0.24888105 </v>
    <v>       0.24794201       0.50431168       0.24974076 </v>
    <v>       0.24516219       0.74636751       0.00380651 </v>
    <v>       0.99937611       0.50224554       0.49629825 </v>
    <v>       0.00252825       0.74695737       0.74827181 </v>
    <v>       0.24936284       0.50093289       0.75198368 </v>
    <v>       0.24899887       0.75103306       0.49825439 </v>
    <v>       0.50594712       0.00068716       0.00149002 </v>
    <v>       0.50024868       0.24806669       0.25344905 </v>
    <v>       0.74741141       0.00114934       0.24802926 </v>
    <v>       0.75012955       0.25031557       0.99825163 </v>
    <v>       0.50111540       0.00151488       0.50106388 </v>
    <v>       0.50321769       0.24606840       0.75364203 </v>
    <v>       0.75242965       0.99862618       0.74982205 </v>
    <v>       0.74868218       0.24695050       0.49993218 </v>
    <v>       0.50199044       0.50158617       0.99352059 </v>
    <v>       0.49791156       0.75201658       0.25114464 </v>
    <v>       0.74632843       0.50540931       0.24780555 </v>
    <v>       0.75056334       0.74653786       0.99586233 </v>
    <v>       0.49909727       0.49856523       0.49710364 </v>
    <v>       0.49860200       0.75312363       0.74662772 </v>
    <v>       0.75233570       0.49990264       0.75086595 </v>
    <v>       0.74767576       0.74708985       0.50452932 </v>
   </varray>
  </structure>
  <varray name="forces" >
   <v>      -0.73710703      -0.00648617       0.14497286 </v>
   <v>      -0.84776820       0.43222406      -0.68535675 </v>
   <v>      -0.47391020      -0.28071753       0.18422874 </v>
   <v>      -0.17075642       0.23938157       0.07225616 </v>
   <v>       0.06812482      -0.87078767      -0.41050320 </v>
   <v>       0.05330381       0.37017251       0.08754572 </v>
   <v>       0.01413382      -1.13853531       0.22177693 </v>
   <v>       0.13480867      -0.09221390       0.52432695 </v>
   <v>      -1.10010410      -0.45391444       1.38838280 </v>
   <v>       0.08936323       0.45297052       0.40098791 </v>
   <v>       0.21876935       0.77405062      -0.72877603 </v>
   <v>      -0.65151350       0.18570502      -0.88835100 </v>
   <v>       0.48622261       0.81320025       0.24162156 </v>
   <v>      -0.04820469      -0.09084906      -0.58270406 </v>
   <v>       0.18658120       0.45802989      -0.78630042 </v>
   <v>      -0.67344179      -0.39976189      -0.10956346 </v>
   <v>      -0.35116876       0.92405852       0.20804646 </v>
   <v>       0.79305204       0.30704043       0.69810885 </v>
   <v>      -0.51063519       0.08897080      -0.41294918 </v>
   <v>      -0.86337774      -0.13721005       0.38933445 </v>
   <v>       0.00724073       0.68887597       1.06799834 </v>
   <v>      -0.11977834      -0.47813913       0.60212523 </v>
   <v>      -0.02586278      -0.25517298      -1.02871506 </v>
   <v>      -0.60626678       0.12367802       0.26571378 </v>
   <v>      -0.54801970      -0.12567503      -0.81278531 </v>
   <v>       0.15804101       0.20116687       0.81047664 </v>
   <v>      -0.58246190      -0.42829159       0.20779670 </v>
   <v>       0.18523207       0.30402493      -0.68723660 </v>
   <v>      -0.22662612      -0.68872504      -0.04634571 </v>
   <v>      -0.25111791      -0.41466372      -0.35046837 </v>
   <v>       0.56645164       0.52829849       0.20093089 </v>
   <v>       0.89338322      -0.49876113       0.10021127 </v>
   <v>      -0.06779126      -0.17548928       0.98368705 </v>
   <v>       0.47415974       0.18298959      -0.57984573 </v>
   <v>       0.69789915       0.60792894      -0.08442279 </v>
   <v>       0.62302552       0.77663847       0.69032563 </v>
   <v>      -0.01960764      -0.06985240       0.48791604 </v>
   <v>      -0.66682860       0.85048355      -0.06999476 </v>
   <v>      -0.00841334      -0.41774112       0.21263224 </v>
   <v>       1.23542697      -0.08551917       0.03408302 </v>
   <v>       0.19549070      -0.58879970      -0.25358108 </v>
   <v>      -0.98208857      -0.31343565      -0.33955806 </v>
   <v>       0.77181679      -1.30032095      -0.29469076 </v>
   <v>       1.76549121       1.39873473      -0.92306104 </v>
   <v>      -0.04710932      -0.74950604       0.20530140 </v>
   <v>      -0.42292163       0.53213709       0.05631389 </v>
   <v>       0.22720152      -0.59978802      -0.45104984 </v>
   <v>       0.27302871      -0.25644406       0.72912357 </v>
   <v>      -1.12471874      -0.34457909      -0.10906889 </v>
   <v>      -0.50978148       0.21406624      -1.19101653 </v>
   <v>       0.88201184      -0.82439824       0.43215301 </v>
   <v>       0.29529895       0.45287964       0.56645889 </v>
   <v>      -0.20206958      -0.41486344      -0.82825308 </v>
   <v>      -0.24117216       0.84250056      -1.37290469 </v>
   <v>      -0.12498118       0.32935758       0.19282543 </v>
   <v>       0.43686125       0.68547304      -0.19855599 </v>
   <v>      -0.31788608      -0.38586815       1.29797713 </v>
   <v>       0.28560585      -0.64244099       0.12657640 </v>
   <v>       0.99089192      -0.85013886       0.28041329 </v>
   <v>       0.06389133       0.67808733       0.87404999 </v>
   <v>       0.03052213      -0.20502258       0.73229809 </v>
   <v>       0.00777611      -0.29077129       0.88286750 </v>
   <v>      -0.02188656      -0.39372662      -1.13783440 </v>
   <v>       0.43426940       0.82548509      -1.23795205 </v>
  </varray>
  <varray name="stress" >
   <v>       3.95197079       0.81885243       0.55450784 </v>
   <v>       0.81885243       3.77781538      -5.40469080 </v>
   <v>       0.55450787      -5.40469084       3.53838821 </v>
  </varray>
  <energy>
   <i name="e_fr_energy">   -481.07955148 </i>
   <i name="e_wo_entrp">   -481.08926026 </i>
   <i name="e_0_energy">   -481.08278774 </i>
  </energy>
  <time name="totalsc">  112.13  112.19</time>
  <eigenvalues>
   <array>
    <dimension dim="1">band</dimension>
    <dimension dim="2">kpoint</dimension>
    <dimension dim="3">spin</dimension>
    <field>eigene</field>
    <field>occ</field>
    <set>
     <set comment="spin 1">
      <set comment="kpoint 1">
       <r>   -7.3463    1.0000 </r>
       <r>   -5.9035    1.0000 </r>
       <r>   -5.8323    1.0000 </r>
       <r>   -5.7719    1.0000 </r>
       <r>   -5.7167    1.0000 </r>
       <r>   -5.6857    1.0000 </r>
       <r>   -5.6676    1.0000 </r>
       <r>   -4.5447    1.0000 </r>
       <r>   -4.5123    1.0000 </r>
       <r>   -4.4491    1.0000 </r>
       <r>   -4.4121    1.0000 </r>
       <r>   -4.3693    1.0000 </r>
       <r>   -4.3600    1.0000 </r>
       <r>   -4.3455    1.0000 </r>
       <r>   -4.3266    1.0000 </r>
       <r>   -4.2884    1.0000 </r>
       <r>   -4.2637    1.0000 </r>
       <r>   -4.1403    1.0000 </r>
       <r>   -4.1053    1.0000 </r>
       <r>   -3.9126    1.0000 </r>
       <r>   -3.8422    1.0000 </r>
       <r>   -3.8393    1.0000 </r>
       <r>   -3.5890    1.0000 </r>
       <r>   -2.4377    1.0000 </r>
       <r>   -2.4041    1.0000 </r>
       <r>   -2.3037    1.0000 </r>
       <r>   -2.2543    1.0000 </r>
       <r>   -2.2113    1.0000 </r>
       <r>   -2.1266    1.0000 </r>
       <r>   -2.0969    1.0000 </r>
       <r>   -2.0581    1.0000 </r>
       <r>   -1.9738    1.0000 </r>
       <r>   -0.6358    1.0000 </r>
       <r>   -0.4621    1.0000 </r>
       <r>   -0.4569    1.0000 </r>
       <r>   -0.4077    1.0000 </r>
       <r>    0.2211    1.0000 </r>
       <r>    0.2297    1.0000 </r>
       <r>    0.2359    1.0000 </r>
       <r>    0.9448    1.0000 </r>
       <r>    0.9574    1.0000 </r>
       <r>    0.9646    1.0000 </r>
       <r>    0.9897    1.0000 </r>
       <r>    1.0087    1.0000 </r>
       <r>    1.0435    1.0000 </r>
       <r>    1.8966    1.0000 </r>
       <r>    1.9590    1.0000 </r>
       <r>    1.9901    1.0000 </r>
       <r>    2.0229    1.0000 </r>
       <r>    2.0504    1.0000 </r>
       <r>    2.0805    1.0000 </r>
       <r>    2.0898    1.0000 </r>
       <r>    2.1115    1.0000 </r>
       <r>    2.1211    1.0000 </r>
       <r>    2.1678    1.0000 </r>
       <r>    2.1886    1.0000 </r>
       <r>    2.1946    1.0000 </r>
       <r>    2.9727    1.0000 </r>
       <r>    3.0060    1.0000 </r>
       <r>    3.0306    1.0000 </r>
       <r>    3.0586    1.0000 </r>
       <r>    3.0799    1.0000 </r>
       <r>    3.1006    1.0000 </r>
       <r>    3.2751    1.0000 </r>
       <r>    3.3118    1.0000 </r>
       <r>    3.3256    1.0000 </r>
       <r>    3.3393    1.0000 </r>
       <r>    3.3756    1.0000 </r>
       <r>    3.3977    1.0000 </r>
       <r>    3.5415    1.0000 </r>
       <r>    3.5547    1.0000 </r>
       <r>    3.5883    1.0000 </r>
       <r>    3.6216    1.0000 </r>
       <r>    3.6713    1.0000 </r>
       <r>    3.6986    1.0000 </r>
       <r>    3.7086    1.0000 </r>
       <r>    3.7247    1.0000 </r>
       <r>    3.7450    1.0000 </r>
       <r>    3.8172    1.0000 </r>
       <r>    3.8294    1.0000 </r>
       <r>    3.8406    1.0000 </r>
       <r>    4.5682    1.0000 </r>
       <r>    4.6101    1.0000 </r>
       <r>    4.6423    1.0000 </r>
       <r>    4.6538    1.0000 </r>
       <r>    4.6885    1.0000 </r>
       <r>    4.7423    1.0000 </r>
       <r>    4.7995    1.0000 </r>
       <r>    4.8107    1.0000 </r>
       <r>    4.8302    1.0000 </r>
       <r>    4.8507    1.0000 </r>
       <r>    4.8664    1.0000 </r>
       <r>    4.8960    1.0000 </r>
       <r>    5.9166    1.0000 </r>
       <r>    5.9376    1.0000 </r>
       <r>    5.9818    1.0000 </r>
       <r>    6.0219    1.0000 </r>
       <r>    6.0297    1.0000 </r>
       <r>    6.0413    1.0000 </r>
       <r>    6.1025    1.0000 </r>
       <r>    6.1156    1.0000 </r>
       <r>    6.1377    1.0000 </r>
       <r>    6.1834    1.0000 </r>
       <r>    6.2001    1.0000 </r>
       <r>    6.2306    1.0000 </r>
       <r>    6.6223    1.0000 </r>
       <r>    6.6649    1.0000 </r>
       <r>    6.7191    1.0000 </r>
       <r>    6.7441    1.0000 </r>
       <r>    6.7827    1.0000 </r>
       <r>    6.7886    1.0000 </r>
       <r>    6.8160    1.0000 </r>
       <r>    6.8395    1.0000 </r>
       <r>    6.8553    1.0000 </r>
       <r>    6.8644    1.0000 </r>
       <r>    6.8892    1.0000 </r>
       <r>    6.9009    1.0000 </r>
       <r>    6.9157    1.0000 </r>
       <r>    6.9543    1.0000 </r>
       <r>    6.9639    1.0000 </r>
       <r>    6.9744    1.0000 </r>
       <r>    6.9987    1.0000 </r>
       <r>    7.0863    1.0000 </r>
       <r>    7.1255    1.0000 </r>
       <r>    7.1526    1.0000 </r>
       <r>    7.9903    1.0012 </r>
       <r>    8.0305    0.9395 </r>
       <r>    8.0652    0.8548 </r>
       <r>    9.1976   -0.0000 </r>
       <r>    9.4162   -0.0000 </r>
       <r>    9.4698   -0.0000 </r>
       <r>   11.9277   -0.0000 </r>
       <r>   11.9472   -0.0000 </r>
       <r>   11.9733   -0.0000 </r>
       <r>   12.0301   -0.0000 </r>
       <r>   12.0682   -0.0000 </r>
       <r>   12.0891   -0.0000 </r>
       <r>   12.2617   -0.0000 </r>
       <r>   12.2854   -0.0000 </r>
       <r>   12.2894   -0.0000 </r>
       <r>   13.0517   -0.0000 </r>
       <r>   13.0987   -0.0000 </r>
       <r>   13.1343   -0.0000 </r>
       <r>   13.1717   -0.0000 </r>
       <r>   13.2166   -0.0000 </r>
       <r>   13.2547   -0.0000 </r>
       <r>   13.2972   -0.0000 </r>
       <r>   13.3063   -0.0000 </r>
       <r>   13.3346   -0.0000 </r>
       <r>   13.3602   -0.0000 </r>
       <r>   13.3779   -0.0000 </r>
       <r>   13.3900   -0.0000 </r>
       <r>   13.4232   -0.0000 </r>
       <r>   13.4301   -0.0000 </r>
       <r>   13.4834   -0.0000 </r>
       <r>   13.4889   -0.0000 </r>
       <r>   13.4932   -0.0000 </r>
       <r>   13.5311   -0.0000 </r>
       <r>   13.5448   -0.0000 </r>
       <r>   13.5916   -0.0000 </r>
       <r>   13.6122   -0.0000 </r>
       <r>   13.6669    0.0000 </r>
       <r>   14.0982    0.0000 </r>
       <r>   14.2165    0.0000 </r>
       <r>   14.2317    0.0000 </r>
       <r>   14.2953    0.0000 </r>
       <r>   14.3089    0.0000 </r>
       <r>   14.3764    0.0000 </r>
      </set>
      <set comment="kpoint 2">
       <r>   -7.1679    1.0000 </r>
       <r>   -6.6356    1.0000 </r>
       <r>   -5.6874    1.0000 </r>
       <r>   -5.6503    1.0000 </r>
       <r>   -5.5569    1.0000 </r>
       <r>   -5.5154    1.0000 </r>
       <r>   -5.1844    1.0000 </r>
       <r>   -5.1606    1.0000 </r>
       <r>   -5.0678    1.0000 </r>
       <r>   -5.0315    1.0000 </r>
       <r>   -4.5984    1.0000 </r>
       <r>   -4.3292    1.0000 </r>
       <r>   -4.2737    1.0000 </r>
       <r>   -4.2499    1.0000 </r>
       <r>   -4.0790    1.0000 </r>
       <r>   -4.0628    1.0000 </r>
       <r>   -4.0133    1.0000 </r>
       <r>   -3.9944    1.0000 </r>
       <r>   -3.8030    1.0000 </r>
       <r>   -3.4741    1.0000 </r>
       <r>   -3.4467    1.0000 </r>
       <r>   -3.3312    1.0000 </r>
       <r>   -3.3077    1.0000 </r>
       <r>   -3.2231    1.0000 </r>
       <r>   -2.6048    1.0000 </r>
       <r>   -2.5771    1.0000 </r>
       <r>   -2.4769    1.0000 </r>
       <r>   -2.4342    1.0000 </r>
       <r>   -2.3658    1.0000 </r>
       <r>   -2.2461    1.0000 </r>
       <r>   -2.2188    1.0000 </r>
       <r>   -2.0845    1.0000 </r>
       <r>   -0.1683    1.0000 </r>
       <r>   -0.0060    1.0000 </r>
       <r>    0.0116    1.0000 </r>
       <r>    0.0492    1.0000 </r>
       <r>    0.3622    1.0000 </r>
       <r>    0.3748    1.0000 </r>
       <r>    0.7079    1.0000 </r>
       <r>    0.7197    1.0000 </r>
       <r>    0.9511    1.0000 </r>
       <r>    1.0145    1.0000 </r>
       <r>    1.0280    1.0000 </r>
       <r>    1.0601    1.0000 </r>
       <r>    1.0733    1.0000 </r>
       <r>    1.1176    1.0000 </r>
       <r>    1.1484    1.0000 </r>
       <r>    1.1966    1.0000 </r>
       <r>    1.2471    1.0000 </r>
       <r>    1.3708    1.0000 </r>
       <r>    1.3932    1.0000 </r>
       <r>    1.4441    1.0000 </r>
       <r>    1.4523    1.0000 </r>
       <r>    2.6537    1.0000 </r>
       <r>    2.6833    1.0000 </r>
       <r>    2.7112    1.0000 </r>
       <r>    2.7407    1.0000 </r>
       <r>    2.8934    1.0000 </r>
       <r>    2.9057    1.0000 </r>
       <r>    2.9287    1.0000 </r>
       <r>    2.9460    1.0000 </r>
       <r>    2.9739    1.0000 </r>
       <r>    3.0207    1.0000 </r>
       <r>    3.0497    1.0000 </r>
       <r>    3.0731    1.0000 </r>
       <r>    3.0951    1.0000 </r>
       <r>    3.5165    1.0000 </r>
       <r>    3.5335    1.0000 </r>
       <r>    3.6460    1.0000 </r>
       <r>    3.6524    1.0000 </r>
       <r>    3.9836    1.0000 </r>
       <r>    4.0097    1.0000 </r>
       <r>    4.0339    1.0000 </r>
       <r>    4.0684    1.0000 </r>
       <r>    4.3355    1.0000 </r>
       <r>    4.3581    1.0000 </r>
       <r>    4.3673    1.0000 </r>
       <r>    4.3943    1.0000 </r>
       <r>    4.4237    1.0000 </r>
       <r>    4.4349    1.0000 </r>
       <r>    4.4618    1.0000 </r>
       <r>    4.4842    1.0000 </r>
       <r>    4.5778    1.0000 </r>
       <r>    4.5945    1.0000 </r>
       <r>    4.6724    1.0000 </r>
       <r>    4.7210    1.0000 </r>
       <r>    4.7366    1.0000 </r>
       <r>    4.8308    1.0000 </r>
       <r>    4.8504    1.0000 </r>
       <r>    4.9336    1.0000 </r>
       <r>    4.9705    1.0000 </r>
       <r>    5.0082    1.0000 </r>
       <r>    5.3748    1.0000 </r>
       <r>    5.4138    1.0000 </r>
       <r>    5.5420    1.0000 </r>
       <r>    5.5736    1.0000 </r>
       <r>    5.6465    1.0000 </r>
       <r>    5.6963    1.0000 </r>
       <r>    5.8398    1.0000 </r>
       <r>    5.8609    1.0000 </r>
       <r>    5.9089    1.0000 </r>
       <r>    5.9334    1.0000 </r>
       <r>    6.1558    1.0000 </r>
       <r>    6.1898    1.0000 </r>
       <r>    6.2643    1.0000 </r>
       <r>    6.2919    1.0000 </r>
       <r>    6.3711    1.0000 </r>
       <r>    6.4323    1.0000 </r>
       <r>    6.4677    1.0000 </r>
       <r>    6.5155    1.0000 </r>
       <r>    6.5644    1.0000 </r>
       <r>    6.6915    1.0000 </r>
       <r>    6.7772    1.0000 </r>
       <r>    6.8034    1.0000 </r>
       <r>    6.8276    1.0000 </r>
       <r>    6.8698    1.0000 </r>
       <r>    6.8860    1.0000 </r>
       <r>    6.8967    1.0000 </r>
       <r>    6.9183    1.0000 </r>
       <r>    6.9555    1.0000 </r>
       <r>    6.9610    1.0000 </r>
       <r>    6.9960    1.0000 </r>
       <r>    7.0200    1.0000 </r>
       <r>    7.0497    1.0000 </r>
       <r>    7.0938    1.0000 </r>
       <r>    7.4843    1.0000 </r>
       <r>    7.6537    1.0010 </r>
       <r>    7.7223    1.0042 </r>
       <r>    9.6586   -0.0000 </r>
       <r>   10.1430   -0.0000 </r>
       <r>   10.2872   -0.0000 </r>
       <r>   10.6147   -0.0000 </r>
       <r>   11.8995   -0.0000 </r>
       <r>   12.0382   -0.0000 </r>
       <r>   12.4673   -0.0000 </r>
       <r>   12.5661   -0.0000 </r>
       <r>   12.6092   -0.0000 </r>
       <r>   12.6644   -0.0000 </r>
       <r>   12.7161   -0.0000 </r>
       <r>   12.8965   -0.0000 </r>
       <r>   12.9315   -0.0000 </r>
       <r>   12.9772   -0.0000 </r>
       <r>   13.0203   -0.0000 </r>
       <r>   13.0266   -0.0000 </r>
       <r>   13.0497   -0.0000 </r>
       <r>   13.0726   -0.0000 </r>
       <r>   13.0983   -0.0000 </r>
       <r>   13.1220   -0.0000 </r>
       <r>   13.1330   -0.0000 </r>
       <r>   13.2533   -0.0000 </r>
       <r>   13.4844   -0.0000 </r>
       <r>   13.5705   -0.0000 </r>
       <r>   13.6071   -0.0000 </r>
       <r>   13.6371    0.0000 </r>
       <r>   13.6669    0.0000 </r>
       <r>   13.6867    0.0000 </r>
       <r>   13.6906    0.0000 </r>
       <r>   13.7150    0.0000 </r>
       <r>   13.7622    0.0000 </r>
       <r>   13.9184    0.0000 </r>
       <r>   13.9405    0.0000 </r>
       <r>   13.9850    0.0000 </r>
       <r>   14.0535    0.0000 </r>
       <r>   14.4666    0.0000 </r>
       <r>   14.7886    0.0000 </r>
       <r>   14.7994    0.0000 </r>
       <r>   14.8470    0.0000 </r>
       <r>   14.9121    0.0000 </r>
      </set>
      <set comment="kpoint 3">
       <r>   -7.1686    1.0000 </r>
       <r>   -6.6334    1.0000 </r>
       <r>   -5.7035    1.0000 </r>
       <r>   -5.6262    1.0000 </r>
       <r>   -5.5704    1.0000 </r>
       <r>   -5.5182    1.0000 </r>
       <r>   -5.2011    1.0000 </r>
       <r>   -5.1378    1.0000 </r>
       <r>   -5.0619    1.0000 </r>
       <r>   -5.0265    1.0000 </r>
       <r>   -4.6001    1.0000 </r>
       <r>   -4.3151    1.0000 </r>
       <r>   -4.2905    1.0000 </r>
       <r>   -4.2491    1.0000 </r>
       <r>   -4.1114    1.0000 </r>
       <r>   -4.0675    1.0000 </r>
       <r>   -4.0161    1.0000 </r>
       <r>   -4.0013    1.0000 </r>
       <r>   -3.7524    1.0000 </r>
       <r>   -3.5017    1.0000 </r>
       <r>   -3.4124    1.0000 </r>
       <r>   -3.3458    1.0000 </r>
       <r>   -3.3117    1.0000 </r>
       <r>   -3.2218    1.0000 </r>
       <r>   -2.6298    1.0000 </r>
       <r>   -2.5345    1.0000 </r>
       <r>   -2.4777    1.0000 </r>
       <r>   -2.4256    1.0000 </r>
       <r>   -2.3675    1.0000 </r>
       <r>   -2.2620    1.0000 </r>
       <r>   -2.2418    1.0000 </r>
       <r>   -2.0700    1.0000 </r>
       <r>   -0.1670    1.0000 </r>
       <r>   -0.0095    1.0000 </r>
       <r>    0.0143    1.0000 </r>
       <r>    0.0495    1.0000 </r>
       <r>    0.3604    1.0000 </r>
       <r>    0.3728    1.0000 </r>
       <r>    0.7161    1.0000 </r>
       <r>    0.7292    1.0000 </r>
       <r>    0.9416    1.0000 </r>
       <r>    1.0120    1.0000 </r>
       <r>    1.0247    1.0000 </r>
       <r>    1.0564    1.0000 </r>
       <r>    1.0932    1.0000 </r>
       <r>    1.1237    1.0000 </r>
       <r>    1.1508    1.0000 </r>
       <r>    1.1825    1.0000 </r>
       <r>    1.2413    1.0000 </r>
       <r>    1.3511    1.0000 </r>
       <r>    1.4083    1.0000 </r>
       <r>    1.4177    1.0000 </r>
       <r>    1.4786    1.0000 </r>
       <r>    2.6414    1.0000 </r>
       <r>    2.6773    1.0000 </r>
       <r>    2.7143    1.0000 </r>
       <r>    2.7395    1.0000 </r>
       <r>    2.8870    1.0000 </r>
       <r>    2.9088    1.0000 </r>
       <r>    2.9251    1.0000 </r>
       <r>    2.9418    1.0000 </r>
       <r>    2.9887    1.0000 </r>
       <r>    3.0305    1.0000 </r>
       <r>    3.0508    1.0000 </r>
       <r>    3.0772    1.0000 </r>
       <r>    3.1041    1.0000 </r>
       <r>    3.5194    1.0000 </r>
       <r>    3.5210    1.0000 </r>
       <r>    3.6449    1.0000 </r>
       <r>    3.6492    1.0000 </r>
       <r>    3.9683    1.0000 </r>
       <r>    4.0204    1.0000 </r>
       <r>    4.0455    1.0000 </r>
       <r>    4.0691    1.0000 </r>
       <r>    4.3374    1.0000 </r>
       <r>    4.3574    1.0000 </r>
       <r>    4.3740    1.0000 </r>
       <r>    4.3862    1.0000 </r>
       <r>    4.4087    1.0000 </r>
       <r>    4.4327    1.0000 </r>
       <r>    4.4624    1.0000 </r>
       <r>    4.4986    1.0000 </r>
       <r>    4.5780    1.0000 </r>
       <r>    4.6136    1.0000 </r>
       <r>    4.6713    1.0000 </r>
       <r>    4.7095    1.0000 </r>
       <r>    4.7370    1.0000 </r>
       <r>    4.8134    1.0000 </r>
       <r>    4.8577    1.0000 </r>
       <r>    4.9261    1.0000 </r>
       <r>    4.9819    1.0000 </r>
       <r>    4.9931    1.0000 </r>
       <r>    5.3902    1.0000 </r>
       <r>    5.4076    1.0000 </r>
       <r>    5.5349    1.0000 </r>
       <r>    5.5746    1.0000 </r>
       <r>    5.6548    1.0000 </r>
       <r>    5.7012    1.0000 </r>
       <r>    5.8295    1.0000 </r>
       <r>    5.8785    1.0000 </r>
       <r>    5.9017    1.0000 </r>
       <r>    5.9568    1.0000 </r>
       <r>    6.1437    1.0000 </r>
       <r>    6.1920    1.0000 </r>
       <r>    6.2592    1.0000 </r>
       <r>    6.3081    1.0000 </r>
       <r>    6.3551    1.0000 </r>
       <r>    6.4136    1.0000 </r>
       <r>    6.4758    1.0000 </r>
       <r>    6.5297    1.0000 </r>
       <r>    6.5564    1.0000 </r>
       <r>    6.7105    1.0000 </r>
       <r>    6.7679    1.0000 </r>
       <r>    6.7952    1.0000 </r>
       <r>    6.8293    1.0000 </r>
       <r>    6.8491    1.0000 </r>
       <r>    6.8803    1.0000 </r>
       <r>    6.8950    1.0000 </r>
       <r>    6.9188    1.0000 </r>
       <r>    6.9256    1.0000 </r>
       <r>    6.9762    1.0000 </r>
       <r>    6.9898    1.0000 </r>
       <r>    7.0190    1.0000 </r>
       <r>    7.0805    1.0000 </r>
       <r>    7.0969    1.0000 </r>
       <r>    7.4807    1.0000 </r>
       <r>    7.6883    1.0021 </r>
       <r>    7.6950    1.0025 </r>
       <r>    9.6588   -0.0000 </r>
       <r>   10.1451   -0.0000 </r>
       <r>   10.2814   -0.0000 </r>
       <r>   10.6218   -0.0000 </r>
       <r>   11.9069   -0.0000 </r>
       <r>   12.0328   -0.0000 </r>
       <r>   12.4712   -0.0000 </r>
       <r>   12.5604   -0.0000 </r>
       <r>   12.5893   -0.0000 </r>
       <r>   12.6651   -0.0000 </r>
       <r>   12.7193   -0.0000 </r>
       <r>   12.8876   -0.0000 </r>
       <r>   12.9210   -0.0000 </r>
       <r>   12.9701   -0.0000 </r>
       <r>   13.0347   -0.0000 </r>
       <r>   13.0454   -0.0000 </r>
       <r>   13.0561   -0.0000 </r>
       <r>   13.0733   -0.0000 </r>
       <r>   13.0942   -0.0000 </r>
       <r>   13.1361   -0.0000 </r>
       <r>   13.1736   -0.0000 </r>
       <r>   13.2291   -0.0000 </r>
       <r>   13.4862   -0.0000 </r>
       <r>   13.5636   -0.0000 </r>
       <r>   13.5833   -0.0000 </r>
       <r>   13.6423    0.0000 </r>
       <r>   13.6601    0.0000 </r>
       <r>   13.6829    0.0000 </r>
       <r>   13.6951    0.0000 </r>
       <r>   13.7184    0.0000 </r>
       <r>   13.7663    0.0000 </r>
       <r>   13.8837    0.0000 </r>
       <r>   13.9441    0.0000 </r>
       <r>   14.0023    0.0000 </r>
       <r>   14.0619    0.0000 </r>
       <r>   14.4662    0.0000 </r>
       <r>   14.7666    0.0000 </r>
       <r>   14.8149    0.0000 </r>
       <r>   14.8466    0.0000 </r>
       <r>   14.8783    0.0000 </r>
      </set>
      <set comment="kpoint 4">
       <r>   -7.1677    1.0000 </r>
       <r>   -6.6356    1.0000 </r>
       <r>   -5.7186    1.0000 </r>
       <r>   -5.6248    1.0000 </r>
       <r>   -5.5533    1.0000 </r>
       <r>   -5.5081    1.0000 </r>
       <r>   -5.2236    1.0000 </r>
       <r>   -5.1242    1.0000 </r>
       <r>   -5.0698    1.0000 </r>
       <r>   -5.0164    1.0000 </r>
       <r>   -4.6082    1.0000 </r>
       <r>   -4.3411    1.0000 </r>
       <r>   -4.2690    1.0000 </r>
       <r>   -4.2590    1.0000 </r>
       <r>   -4.0829    1.0000 </r>
       <r>   -4.0796    1.0000 </r>
       <r>   -3.9995    1.0000 </r>
       <r>   -3.9866    1.0000 </r>
       <r>   -3.7902    1.0000 </r>
       <r>   -3.5219    1.0000 </r>
       <r>   -3.4280    1.0000 </r>
       <r>   -3.3462    1.0000 </r>
       <r>   -3.2695    1.0000 </r>
       <r>   -3.2144    1.0000 </r>
       <r>   -2.6395    1.0000 </r>
       <r>   -2.5518    1.0000 </r>
       <r>   -2.4809    1.0000 </r>
       <r>   -2.4081    1.0000 </r>
       <r>   -2.3480    1.0000 </r>
       <r>   -2.2399    1.0000 </r>
       <r>   -2.2175    1.0000 </r>
       <r>   -2.1312    1.0000 </r>
       <r>   -0.1727    1.0000 </r>
       <r>   -0.0102    1.0000 </r>
       <r>    0.0034    1.0000 </r>
       <r>    0.0611    1.0000 </r>
       <r>    0.3642    1.0000 </r>
       <r>    0.3741    1.0000 </r>
       <r>    0.7105    1.0000 </r>
       <r>    0.7346    1.0000 </r>
       <r>    0.9515    1.0000 </r>
       <r>    0.9929    1.0000 </r>
       <r>    1.0256    1.0000 </r>
       <r>    1.0564    1.0000 </r>
       <r>    1.0827    1.0000 </r>
       <r>    1.1272    1.0000 </r>
       <r>    1.1532    1.0000 </r>
       <r>    1.1986    1.0000 </r>
       <r>    1.2516    1.0000 </r>
       <r>    1.3535    1.0000 </r>
       <r>    1.3921    1.0000 </r>
       <r>    1.4274    1.0000 </r>
       <r>    1.4748    1.0000 </r>
       <r>    2.6587    1.0000 </r>
       <r>    2.6761    1.0000 </r>
       <r>    2.7127    1.0000 </r>
       <r>    2.7515    1.0000 </r>
       <r>    2.8705    1.0000 </r>
       <r>    2.8974    1.0000 </r>
       <r>    2.9088    1.0000 </r>
       <r>    2.9350    1.0000 </r>
       <r>    2.9776    1.0000 </r>
       <r>    3.0227    1.0000 </r>
       <r>    3.0685    1.0000 </r>
       <r>    3.0900    1.0000 </r>
       <r>    3.1215    1.0000 </r>
       <r>    3.5171    1.0000 </r>
       <r>    3.5200    1.0000 </r>
       <r>    3.6480    1.0000 </r>
       <r>    3.6588    1.0000 </r>
       <r>    3.9491    1.0000 </r>
       <r>    4.0039    1.0000 </r>
       <r>    4.0388    1.0000 </r>
       <r>    4.1099    1.0000 </r>
       <r>    4.3256    1.0000 </r>
       <r>    4.3496    1.0000 </r>
       <r>    4.3589    1.0000 </r>
       <r>    4.3828    1.0000 </r>
       <r>    4.3980    1.0000 </r>
       <r>    4.4353    1.0000 </r>
       <r>    4.4645    1.0000 </r>
       <r>    4.4931    1.0000 </r>
       <r>    4.5727    1.0000 </r>
       <r>    4.6292    1.0000 </r>
       <r>    4.6717    1.0000 </r>
       <r>    4.7163    1.0000 </r>
       <r>    4.7411    1.0000 </r>
       <r>    4.8267    1.0000 </r>
       <r>    4.8386    1.0000 </r>
       <r>    4.9529    1.0000 </r>
       <r>    4.9833    1.0000 </r>
       <r>    4.9904    1.0000 </r>
       <r>    5.3973    1.0000 </r>
       <r>    5.4087    1.0000 </r>
       <r>    5.5078    1.0000 </r>
       <r>    5.5568    1.0000 </r>
       <r>    5.6849    1.0000 </r>
       <r>    5.6993    1.0000 </r>
       <r>    5.8128    1.0000 </r>
       <r>    5.8708    1.0000 </r>
       <r>    5.9120    1.0000 </r>
       <r>    5.9636    1.0000 </r>
       <r>    6.1184    1.0000 </r>
       <r>    6.1946    1.0000 </r>
       <r>    6.2821    1.0000 </r>
       <r>    6.2927    1.0000 </r>
       <r>    6.3836    1.0000 </r>
       <r>    6.4182    1.0000 </r>
       <r>    6.4582    1.0000 </r>
       <r>    6.5291    1.0000 </r>
       <r>    6.5907    1.0000 </r>
       <r>    6.7061    1.0000 </r>
       <r>    6.7799    1.0000 </r>
       <r>    6.8181    1.0000 </r>
       <r>    6.8305    1.0000 </r>
       <r>    6.8428    1.0000 </r>
       <r>    6.8695    1.0000 </r>
       <r>    6.8934    1.0000 </r>
       <r>    6.9155    1.0000 </r>
       <r>    6.9388    1.0000 </r>
       <r>    6.9611    1.0000 </r>
       <r>    6.9907    1.0000 </r>
       <r>    7.0145    1.0000 </r>
       <r>    7.0627    1.0000 </r>
       <r>    7.0820    1.0000 </r>
       <r>    7.4700    1.0000 </r>
       <r>    7.6931    1.0024 </r>
       <r>    7.7032    1.0029 </r>
       <r>    9.6531   -0.0000 </r>
       <r>   10.1844   -0.0000 </r>
       <r>   10.2503   -0.0000 </r>
       <r>   10.6174   -0.0000 </r>
       <r>   11.9293   -0.0000 </r>
       <r>   12.0081   -0.0000 </r>
       <r>   12.4837   -0.0000 </r>
       <r>   12.5591   -0.0000 </r>
       <r>   12.5911   -0.0000 </r>
       <r>   12.6887   -0.0000 </r>
       <r>   12.7153   -0.0000 </r>
       <r>   12.8943   -0.0000 </r>
       <r>   12.9134   -0.0000 </r>
       <r>   12.9767   -0.0000 </r>
       <r>   13.0108   -0.0000 </r>
       <r>   13.0271   -0.0000 </r>
       <r>   13.0448   -0.0000 </r>
       <r>   13.0708   -0.0000 </r>
       <r>   13.1083   -0.0000 </r>
       <r>   13.1478   -0.0000 </r>
       <r>   13.1669   -0.0000 </r>
       <r>   13.2188   -0.0000 </r>
       <r>   13.4889   -0.0000 </r>
       <r>   13.5420   -0.0000 </r>
       <r>   13.6275    0.0000 </r>
       <r>   13.6432    0.0000 </r>
       <r>   13.6612    0.0000 </r>
       <r>   13.6761    0.0000 </r>
       <r>   13.6967    0.0000 </r>
       <r>   13.7049    0.0000 </r>
       <r>   13.7614    0.0000 </r>
       <r>   13.9079    0.0000 </r>
       <r>   13.9302    0.0000 </r>
       <r>   13.9990    0.0000 </r>
       <r>   14.0487    0.0000 </r>
       <r>   14.4737    0.0000 </r>
       <r>   14.7636    0.0000 </r>
       <r>   14.8050    0.0000 </r>
       <r>   14.8429    0.0000 </r>
       <r>   14.9093    0.0000 </r>
      </set>
      <set comment="kpoint 5">
       <r>   -6.9914    1.0000 </r>
       <r>   -6.4994    1.0000 </r>
       <r>   -6.4221    1.0000 </r>
       <r>   -5.9482    1.0000 </r>
       <r>   -5.4734    1.0000 </r>
       <r>   -5.4085    1.0000 </r>
       <r>   -5.0385    1.0000 </r>
       <r>   -5.0200    1.0000 </r>
       <r>   -4.9625    1.0000 </r>
       <r>   -4.8543    1.0000 </r>
       <r>   -4.5905    1.0000 </r>
       <r>   -4.5253    1.0000 </r>
       <r>   -4.4557    1.0000 </r>
       <r>   -4.4043    1.0000 </r>
       <r>   -4.0487    1.0000 </r>
       <r>   -3.9917    1.0000 </r>
       <r>   -3.5645    1.0000 </r>
       <r>   -3.4941    1.0000 </r>
       <r>   -3.4553    1.0000 </r>
       <r>   -3.4071    1.0000 </r>
       <r>   -3.3887    1.0000 </r>
       <r>   -3.2493    1.0000 </r>
       <r>   -3.1582    1.0000 </r>
       <r>   -3.1108    1.0000 </r>
       <r>   -2.9026    1.0000 </r>
       <r>   -2.8389    1.0000 </r>
       <r>   -2.7571    1.0000 </r>
       <r>   -2.7296    1.0000 </r>
       <r>   -2.6399    1.0000 </r>
       <r>   -2.3535    1.0000 </r>
       <r>   -2.2952    1.0000 </r>
       <r>   -2.2031    1.0000 </r>
       <r>   -0.2173    1.0000 </r>
       <r>   -0.1318    1.0000 </r>
       <r>    0.4521    1.0000 </r>
       <r>    0.4940    1.0000 </r>
       <r>    0.5105    1.0000 </r>
       <r>    0.5568    1.0000 </r>
       <r>    0.6114    1.0000 </r>
       <r>    0.6426    1.0000 </r>
       <r>    0.6968    1.0000 </r>
       <r>    0.7649    1.0000 </r>
       <r>    0.8161    1.0000 </r>
       <r>    0.8302    1.0000 </r>
       <r>    0.8673    1.0000 </r>
       <r>    0.9783    1.0000 </r>
       <r>    1.1697    1.0000 </r>
       <r>    1.2264    1.0000 </r>
       <r>    1.2647    1.0000 </r>
       <r>    1.2960    1.0000 </r>
       <r>    1.9696    1.0000 </r>
       <r>    2.0180    1.0000 </r>
       <r>    2.0526    1.0000 </r>
       <r>    2.0878    1.0000 </r>
       <r>    2.1066    1.0000 </r>
       <r>    2.1330    1.0000 </r>
       <r>    2.4091    1.0000 </r>
       <r>    2.5316    1.0000 </r>
       <r>    2.5843    1.0000 </r>
       <r>    2.6742    1.0000 </r>
       <r>    2.7564    1.0000 </r>
       <r>    3.1809    1.0000 </r>
       <r>    3.2407    1.0000 </r>
       <r>    3.2710    1.0000 </r>
       <r>    3.2882    1.0000 </r>
       <r>    3.3897    1.0000 </r>
       <r>    3.4851    1.0000 </r>
       <r>    3.5547    1.0000 </r>
       <r>    3.8977    1.0000 </r>
       <r>    3.9171    1.0000 </r>
       <r>    3.9968    1.0000 </r>
       <r>    4.0107    1.0000 </r>
       <r>    4.0844    1.0000 </r>
       <r>    4.1036    1.0000 </r>
       <r>    4.1199    1.0000 </r>
       <r>    4.2921    1.0000 </r>
       <r>    4.3199    1.0000 </r>
       <r>    4.4753    1.0000 </r>
       <r>    4.4826    1.0000 </r>
       <r>    4.6519    1.0000 </r>
       <r>    4.6819    1.0000 </r>
       <r>    4.8159    1.0000 </r>
       <r>    4.8796    1.0000 </r>
       <r>    4.8938    1.0000 </r>
       <r>    4.9302    1.0000 </r>
       <r>    4.9496    1.0000 </r>
       <r>    4.9948    1.0000 </r>
       <r>    5.0883    1.0000 </r>
       <r>    5.2610    1.0000 </r>
       <r>    5.2914    1.0000 </r>
       <r>    5.4064    1.0000 </r>
       <r>    5.4198    1.0000 </r>
       <r>    5.4449    1.0000 </r>
       <r>    5.4895    1.0000 </r>
       <r>    5.5263    1.0000 </r>
       <r>    5.5386    1.0000 </r>
       <r>    5.5611    1.0000 </r>
       <r>    5.5950    1.0000 </r>
       <r>    5.6080    1.0000 </r>
       <r>    5.6663    1.0000 </r>
       <r>    5.7092    1.0000 </r>
       <r>    5.8412    1.0000 </r>
       <r>    5.9544    1.0000 </r>
       <r>    6.0059    1.0000 </r>
       <r>    6.0505    1.0000 </r>
       <r>    6.0825    1.0000 </r>
       <r>    6.1772    1.0000 </r>
       <r>    6.2025    1.0000 </r>
       <r>    6.2412    1.0000 </r>
       <r>    6.3316    1.0000 </r>
       <r>    6.3787    1.0000 </r>
       <r>    6.4279    1.0000 </r>
       <r>    6.4693    1.0000 </r>
       <r>    6.5303    1.0000 </r>
       <r>    6.5627    1.0000 </r>
       <r>    6.6511    1.0000 </r>
       <r>    6.6803    1.0000 </r>
       <r>    6.7233    1.0000 </r>
       <r>    6.7703    1.0000 </r>
       <r>    6.8104    1.0000 </r>
       <r>    6.8997    1.0000 </r>
       <r>    6.9261    1.0000 </r>
       <r>    6.9613    1.0000 </r>
       <r>    7.3151    1.0000 </r>
       <r>    7.4210    1.0000 </r>
       <r>    7.5732    1.0001 </r>
       <r>    7.6312    1.0006 </r>
       <r>    7.9818    1.0095 </r>
       <r>   10.3231   -0.0000 </r>
       <r>   10.5305   -0.0000 </r>
       <r>   10.5489   -0.0000 </r>
       <r>   11.3160   -0.0000 </r>
       <r>   11.3211   -0.0000 </r>
       <r>   11.6183   -0.0000 </r>
       <r>   11.7016   -0.0000 </r>
       <r>   11.8061   -0.0000 </r>
       <r>   12.1800   -0.0000 </r>
       <r>   12.2197   -0.0000 </r>
       <r>   12.7651   -0.0000 </r>
       <r>   12.8170   -0.0000 </r>
       <r>   12.8877   -0.0000 </r>
       <r>   12.9203   -0.0000 </r>
       <r>   13.0508   -0.0000 </r>
       <r>   13.0716   -0.0000 </r>
       <r>   13.0945   -0.0000 </r>
       <r>   13.1303   -0.0000 </r>
       <r>   13.1821   -0.0000 </r>
       <r>   13.2446   -0.0000 </r>
       <r>   13.2815   -0.0000 </r>
       <r>   13.3152   -0.0000 </r>
       <r>   13.4686   -0.0000 </r>
       <r>   13.5849   -0.0000 </r>
       <r>   13.6229    0.0000 </r>
       <r>   13.6255    0.0000 </r>
       <r>   13.6825    0.0000 </r>
       <r>   13.7219    0.0000 </r>
       <r>   13.7902    0.0000 </r>
       <r>   13.8513    0.0000 </r>
       <r>   13.8751    0.0000 </r>
       <r>   13.8922    0.0000 </r>
       <r>   13.9885    0.0000 </r>
       <r>   14.0882    0.0000 </r>
       <r>   14.1206    0.0000 </r>
       <r>   14.6532    0.0000 </r>
       <r>   14.7367    0.0000 </r>
       <r>   14.7434    0.0000 </r>
       <r>   14.9346    0.0000 </r>
       <r>   15.0168    0.0000 </r>
      </set>
      <set comment="kpoint 6">
       <r>   -6.9913    1.0000 </r>
       <r>   -6.5013    1.0000 </r>
       <r>   -6.4192    1.0000 </r>
       <r>   -5.9498    1.0000 </r>
       <r>   -5.5048    1.0000 </r>
       <r>   -5.3702    1.0000 </r>
       <r>   -5.0799    1.0000 </r>
       <r>   -4.9843    1.0000 </r>
       <r>   -4.9321    1.0000 </r>
       <r>   -4.8640    1.0000 </r>
       <r>   -4.6464    1.0000 </r>
       <r>   -4.4946    1.0000 </r>
       <r>   -4.4581    1.0000 </r>
       <r>   -4.3938    1.0000 </r>
       <r>   -4.0681    1.0000 </r>
       <r>   -3.9651    1.0000 </r>
       <r>   -3.5816    1.0000 </r>
       <r>   -3.5282    1.0000 </r>
       <r>   -3.4882    1.0000 </r>
       <r>   -3.4146    1.0000 </r>
       <r>   -3.3147    1.0000 </r>
       <r>   -3.2676    1.0000 </r>
       <r>   -3.1589    1.0000 </r>
       <r>   -3.0793    1.0000 </r>
       <r>   -2.8954    1.0000 </r>
       <r>   -2.8359    1.0000 </r>
       <r>   -2.7813    1.0000 </r>
       <r>   -2.7130    1.0000 </r>
       <r>   -2.6254    1.0000 </r>
       <r>   -2.3477    1.0000 </r>
       <r>   -2.2920    1.0000 </r>
       <r>   -2.2352    1.0000 </r>
       <r>   -0.2497    1.0000 </r>
       <r>   -0.1293    1.0000 </r>
       <r>    0.4407    1.0000 </r>
       <r>    0.4804    1.0000 </r>
       <r>    0.5304    1.0000 </r>
       <r>    0.5963    1.0000 </r>
       <r>    0.6135    1.0000 </r>
       <r>    0.6303    1.0000 </r>
       <r>    0.6951    1.0000 </r>
       <r>    0.7665    1.0000 </r>
       <r>    0.7840    1.0000 </r>
       <r>    0.8329    1.0000 </r>
       <r>    0.9151    1.0000 </r>
       <r>    1.0079    1.0000 </r>
       <r>    1.1950    1.0000 </r>
       <r>    1.2332    1.0000 </r>
       <r>    1.2635    1.0000 </r>
       <r>    1.2770    1.0000 </r>
       <r>    1.9204    1.0000 </r>
       <r>    2.0081    1.0000 </r>
       <r>    2.0232    1.0000 </r>
       <r>    2.0696    1.0000 </r>
       <r>    2.1091    1.0000 </r>
       <r>    2.1451    1.0000 </r>
       <r>    2.4159    1.0000 </r>
       <r>    2.5389    1.0000 </r>
       <r>    2.5711    1.0000 </r>
       <r>    2.6995    1.0000 </r>
       <r>    2.7308    1.0000 </r>
       <r>    3.1856    1.0000 </r>
[...]
      </set>
     </set>
    </set>
   </array>
  </eigenvalues>
  <separator name="orbital magnetization" >
   <v name="MAGDIPOLOUT">      0.00000000      0.00000000      0.00000000</v>
  </separator>
  <dos>
   <i name="efermi">      8.15971764 </i>
   <total>
    <array>
     <dimension dim="1">gridpoints</dimension>
     <dimension dim="2">spin</dimension>
     <field>energy</field>
     <field>total</field>
     <field>integrated</field>
     <set>
      <set comment="spin 1">
       <r>    -9.3463     0.0000     0.0000 </r>
       <r>    -9.2568     0.0000     0.0000 </r>
       <r>    -9.1674     0.0000     0.0000 </r>
       <r>    -9.0779     0.0000     0.0000 </r>
       <r>    -8.9885    -0.0000    -0.0000 </r>
       <r>    -8.8991    -0.0000    -0.0000 </r>
       <r>    -8.8096    -0.0000    -0.0000 </r>
       <r>    -8.7202    -0.0000    -0.0000 </r>
       <r>    -8.6307    -0.0000    -0.0000 </r>
       <r>    -8.5413    -0.0000    -0.0000 </r>
       <r>    -8.4518    -0.0000    -0.0000 </r>
       <r>    -8.3624    -0.0000    -0.0000 </r>
       <r>    -8.2729    -0.0000    -0.0000 </r>
       <r>    -8.1835    -0.0000    -0.0000 </r>
       <r>    -8.0941    -0.0000    -0.0000 </r>
       <r>    -8.0046    -0.0000    -0.0000 </r>
       <r>    -7.9152    -0.0002    -0.0000 </r>
       <r>    -7.8257    -0.0014    -0.0001 </r>
       <r>    -7.7363    -0.0073    -0.0008 </r>
       <r>    -7.6468    -0.0232    -0.0029 </r>
       <r>    -7.5574    -0.0421    -0.0066 </r>
       <r>    -7.4679    -0.0194    -0.0084 </r>
       <r>    -7.3785     0.1497     0.0050 </r>
       <r>    -7.2890     0.6422     0.0625 </r>
       <r>    -7.1996     1.5781     0.2036 </r>
       <r>    -7.1102     2.8450     0.4581 </r>
       <r>    -7.0207     4.0633     0.8215 </r>
       <r>    -6.9313     4.5768     1.2309 </r>
       <r>    -6.8418     4.0594     1.5940 </r>
       <r>    -6.7524     3.0899     1.8704 </r>
       <r>    -6.6629     2.7931     2.1202 </r>
       <r>    -6.5735     4.2768     2.5027 </r>
       <r>    -6.4840     7.3669     3.1616 </r>
       <r>    -6.3946     9.9936     4.0555 </r>
       <r>    -6.3052    10.0936     4.9583 </r>
       <r>    -6.2157     7.3758     5.6181 </r>
       <r>    -6.1263     3.6804     5.9473 </r>
       <r>    -6.0368     2.1266     6.1375 </r>
       <r>    -5.9474     3.9905     6.4944 </r>
       <r>    -5.8579     7.5761     7.1721 </r>
       <r>    -5.7685    10.5715     8.1176 </r>
       <r>    -5.6790    11.6040     9.1555 </r>
       <r>    -5.5896    11.1084    10.1491 </r>
       <r>    -5.5002    10.4768    11.0862 </r>
       <r>    -5.4107     9.6274    11.9473 </r>
       <r>    -5.3213     8.0574    12.6680 </r>
       <r>    -5.2318     7.1468    13.3073 </r>
       <r>    -5.1424     9.1412    14.1249 </r>
       <r>    -5.0529    13.4873    15.3313 </r>
       <r>    -4.9635    15.6234    16.7287 </r>
       <r>    -4.8740    12.3895    17.8369 </r>
       <r>    -4.7846     6.6979    18.4360 </r>
       <r>    -4.6952     4.1185    18.8044 </r>
       <r>    -4.6057     6.7456    19.4077 </r>
       <r>    -4.5163    12.2884    20.5068 </r>
       <r>    -4.4268    17.5602    22.0775 </r>
       <r>    -4.3374    19.7105    23.8405 </r>
       <r>    -4.2479    17.3681    25.3940 </r>
       <r>    -4.1585    14.5756    26.6977 </r>
       <r>    -4.0690    16.9636    28.2150 </r>
       <r>    -3.9796    21.9621    30.1794 </r>
       <r>    -3.8901    22.4163    32.1844 </r>
       <r>    -3.8007    17.5936    33.7581 </r>
       <r>    -3.7113    12.5567    34.8812 </r>
       <r>    -3.6218    11.8351    35.9398 </r>
       <r>    -3.5324    15.9435    37.3659 </r>
       <r>    -3.4429    20.4615    39.1960 </r>
       <r>    -3.3535    20.9939    41.0738 </r>
       <r>    -3.2640    18.7144    42.7477 </r>
       <r>    -3.1746    17.4211    44.3060 </r>
       <r>    -3.0851    18.3121    45.9439 </r>
       <r>    -2.9957    20.7127    47.7965 </r>
       <r>    -2.9063    24.2215    49.9630 </r>
       <r>    -2.8168    26.9591    52.3743 </r>
       <r>    -2.7274    25.7267    54.6755 </r>
       <r>    -2.6379    20.0682    56.4705 </r>
       <r>    -2.5485    13.4100    57.6699 </r>
       <r>    -2.4590    10.4481    58.6044 </r>
       <r>    -2.3696    12.8755    59.7561 </r>
       <r>    -2.2801    16.5440    61.2359 </r>
       <r>    -2.1907    15.7161    62.6416 </r>
       <r>    -2.1013    10.1905    63.5531 </r>
       <r>    -2.0118     4.3959    63.9463 </r>
       <r>    -1.9224     1.0983    64.0445 </r>
       <r>    -1.8329    -0.0673    64.0385 </r>
       <r>    -1.7435    -0.2391    64.0171 </r>
       <r>    -1.6540    -0.1353    64.0050 </r>
       <r>    -1.5646    -0.0446    64.0010 </r>
       <r>    -1.4751    -0.0096    64.0001 </r>
       <r>    -1.3857    -0.0014    64.0000 </r>
       <r>    -1.2963    -0.0001    64.0000 </r>
       <r>    -1.2068    -0.0002    64.0000 </r>
       <r>    -1.1174    -0.0013    63.9999 </r>
       <r>    -1.0279    -0.0065    63.9993 </r>
       <r>    -0.9385    -0.0180    63.9977 </r>
       <r>    -0.8490    -0.0189    63.9960 </r>
       <r>    -0.7596     0.0385    63.9994 </r>
       <r>    -0.6701     0.1756    64.0151 </r>
       <r>    -0.5807     0.3316    64.0448 </r>
       <r>    -0.4912     0.4626    64.0862 </r>
       <r>    -0.4018     0.9246    64.1689 </r>
       <r>    -0.3124     2.7240    64.4125 </r>
       <r>    -0.2229     6.0959    64.9578 </r>
       <r>    -0.1335     9.0011    65.7629 </r>
       <r>    -0.0440     9.4259    66.6060 </r>
       <r>     0.0454     7.9228    67.3146 </r>
       <r>     0.1349     6.6738    67.9116 </r>
       <r>     0.2243     8.1827    68.6435 </r>
       <r>     0.3138    13.4440    69.8460 </r>
       <r>     0.4032    19.8654    71.6228 </r>
       <r>     0.4926    23.4214    73.7177 </r>
       <r>     0.5821    23.7438    75.8415 </r>
       <r>     0.6715    24.7182    78.0524 </r>
       <r>     0.7610    28.6926    80.6188 </r>
       <r>     0.8504    32.3497    83.5123 </r>
       <r>     0.9399    31.4760    86.3277 </r>
       <r>     1.0293    28.4957    88.8765 </r>
       <r>     1.1188    29.9837    91.5583 </r>
       <r>     1.2082    36.0370    94.7817 </r>
       <r>     1.2976    38.0995    98.1895 </r>
       <r>     1.3871    30.2382   100.8941 </r>
       <r>     1.4765    16.6026   102.3791 </r>
       <r>     1.5660     5.1581   102.8405 </r>
       <r>     1.6554    -0.3689   102.8075 </r>
       <r>     1.7449    -0.8248   102.7337 </r>
       <r>     1.8343     2.3839   102.9469 </r>
       <r>     1.9238     9.1604   103.7663 </r>
       <r>     2.0132    18.2299   105.3969 </r>
       <r>     2.1026    24.4807   107.5865 </r>
       <r>     2.1921    22.7306   109.6197 </r>
       <r>     2.2815    14.6515   110.9302 </r>
       <r>     2.3710     7.5440   111.6049 </r>
       <r>     2.4604     6.3395   112.1720 </r>
       <r>     2.5499    10.4717   113.1086 </r>
       <r>     2.6393    15.8410   114.5255 </r>
       <r>     2.7288    17.4473   116.0861 </r>
       <r>     2.8182    14.6360   117.3952 </r>
       <r>     2.9077    12.7327   118.5341 </r>
       <r>     2.9971    15.5970   119.9291 </r>
       <r>     3.0865    21.5460   121.8563 </r>
       <r>     3.1760    27.5908   124.3242 </r>
       <r>     3.2654    31.4764   127.1396 </r>
       <r>     3.3549    31.3381   129.9426 </r>
       <r>     3.4443    28.8463   132.5227 </r>
       <r>     3.5338    27.2424   134.9594 </r>
       <r>     3.6232    24.6702   137.1660 </r>
       <r>     3.7127    18.6548   138.8346 </r>
       <r>     3.8021    13.3328   140.0272 </r>
       <r>     3.8915    14.5817   141.3314 </r>
       <r>     3.9810    20.8200   143.1937 </r>
       <r>     4.0704    23.9273   145.3338 </r>
       <r>     4.1599    20.7428   147.1892 </r>
       <r>     4.2493    18.5407   148.8475 </r>
       <r>     4.3388    23.8556   150.9813 </r>
       <r>     4.4282    32.1409   153.8561 </r>
       <r>     4.5177    36.2563   157.0991 </r>
       <r>     4.6071    35.7534   160.2970 </r>
       <r>     4.6965    33.7223   163.3133 </r>
       <r>     4.7860    33.5099   166.3106 </r>
       <r>     4.8754    35.5685   169.4920 </r>
       <r>     4.9649    35.7202   172.6870 </r>
       <r>     5.0543    32.6365   175.6061 </r>
       <r>     5.1438    30.3355   178.3195 </r>
       <r>     5.2332    30.3107   181.0306 </r>
       <r>     5.3227    30.5617   183.7642 </r>
       <r>     5.4121    31.5127   186.5829 </r>
       <r>     5.5015    35.3904   189.7483 </r>
       <r>     5.5910    40.3492   193.3574 </r>
       <r>     5.6804    41.1250   197.0358 </r>
       <r>     5.7699    37.3941   200.3805 </r>
       <r>     5.8593    34.7234   203.4863 </r>
       <r>     5.9488    34.4664   206.5691 </r>
       <r>     6.0382    32.5447   209.4801 </r>
       <r>     6.1277    29.3984   212.1096 </r>
       <r>     6.2171    29.3450   214.7344 </r>
       <r>     6.3065    31.9008   217.5877 </r>
       <r>     6.3960    33.9205   220.6218 </r>
       <r>     6.4854    33.9331   223.6569 </r>
       <r>     6.5749    30.8032   226.4121 </r>
       <r>     6.6643    26.8757   228.8160 </r>
       <r>     6.7538    28.1286   231.3319 </r>
       <r>     6.8432    35.2444   234.4844 </r>
       <r>     6.9327    40.5077   238.1076 </r>
       <r>     7.0221    36.4629   241.3690 </r>
       <r>     7.1116    25.0890   243.6130 </r>
       <r>     7.2010    15.2531   244.9774 </r>
       <r>     7.2904    12.3790   246.0846 </r>
       <r>     7.3799    15.0536   247.4311 </r>
       <r>     7.4693    19.2046   249.1488 </r>
       <r>     7.5588    21.2682   251.0511 </r>
       <r>     7.6482    19.5804   252.8025 </r>
       <r>     7.7377    14.5292   254.1021 </r>
       <r>     7.8271     8.3455   254.8485 </r>
       <r>     7.9166     4.5616   255.2565 </r>
       <r>     8.0060     3.8430   255.6003 </r>
       <r>     8.0954     3.2166   255.8880 </r>
       <r>     8.1849     1.4892   256.0212 </r>
       <r>     8.2743     0.1285   256.0327 </r>
       <r>     8.3638    -0.2122   256.0137 </r>
       <r>     8.4532    -0.1172   256.0032 </r>
       <r>     8.5427    -0.0307   256.0005 </r>
       <r>     8.6321    -0.0050   256.0000 </r>
       <r>     8.7216    -0.0019   255.9999 </r>
       <r>     8.8110    -0.0067   255.9993 </r>
       <r>     8.9004    -0.0160   255.9978 </r>
       <r>     8.9899    -0.0053   255.9974 </r>
       <r>     9.0793     0.0745   256.0040 </r>
       <r>     9.1688     0.2096   256.0228 </r>
       <r>     9.2582     0.3062   256.0502 </r>
       <r>     9.3477     0.3718   256.0834 </r>
       <r>     9.4371     0.5514   256.1327 </r>
       <r>     9.5266     0.9986   256.2221 </r>
       <r>     9.6160     1.6458   256.3693 </r>
       <r>     9.7054     1.8657   256.5362 </r>
       <r>     9.7949     1.1834   256.6420 </r>
       <r>     9.8843     0.2028   256.6601 </r>
       <r>     9.9738    -0.1707   256.6449 </r>
       <r>    10.0632     0.4926   256.6889 </r>
       <r>    10.1527     2.2600   256.8911 </r>
       <r>    10.2421     4.5023   257.2938 </r>
       <r>    10.3316     6.0486   257.8348 </r>
       <r>    10.4210     7.1649   258.4757 </r>
       <r>    10.5105     9.3330   259.3105 </r>
       <r>    10.5999    11.2745   260.3189 </r>
       <r>    10.6893    10.4051   261.2496 </r>
       <r>    10.7788     7.5128   261.9216 </r>
       <r>    10.8682     4.3936   262.3146 </r>
       <r>    10.9577     1.5400   262.4523 </r>
       <r>    11.0471    -0.2807   262.4272 </r>
       <r>    11.1366    -0.0435   262.4233 </r>
       <r>    11.2260     2.6315   262.6587 </r>
       <r>    11.3155     6.2108   263.2142 </r>
       <r>    11.4049     8.2798   263.9548 </r>
       <r>    11.4943     9.3548   264.7915 </r>
       <r>    11.5838    10.9795   265.7736 </r>
       <r>    11.6732    12.4126   266.8838 </r>
       <r>    11.7627    13.9237   268.1292 </r>
       <r>    11.8521    17.0954   269.6583 </r>
       <r>    11.9416    20.6002   271.5009 </r>
       <r>    12.0310    21.4078   273.4157 </r>
       <r>    12.1205    18.7202   275.0901 </r>
       <r>    12.2099    13.6821   276.3139 </r>
       <r>    12.2993     7.7315   277.0055 </r>
       <r>    12.3888     3.7632   277.3421 </r>
       <r>    12.4782     5.5153   277.8354 </r>
       <r>    12.5677    12.8339   278.9833 </r>
       <r>    12.6571    20.8898   280.8518 </r>
       <r>    12.7466    25.5569   283.1377 </r>
       <r>    12.8360    27.1665   285.5676 </r>
       <r>    12.9255    28.6370   288.1291 </r>
       <r>    13.0149    31.6498   290.9600 </r>
       <r>    13.1043    34.4621   294.0424 </r>
       <r>    13.1938    33.0111   296.9951 </r>
       <r>    13.2832    25.9891   299.3197 </r>
       <r>    13.3727    17.8756   300.9186 </r>
       <r>    13.4621    15.8303   302.3345 </r>
       <r>    13.5516    22.7392   304.3684 </r>
       <r>    13.6410    32.2041   307.2489 </r>
       <r>    13.7305    34.8270   310.3640 </r>
       <r>    13.8199    30.3938   313.0825 </r>
       <r>    13.9094    26.9122   315.4897 </r>
       <r>    13.9988    28.5270   318.0413 </r>
       <r>    14.0882    31.2383   320.8354 </r>
       <r>    14.1777    29.0942   323.4377 </r>
       <r>    14.2671    20.7798   325.2963 </r>
       <r>    14.3566    10.3852   326.2253 </r>
       <r>    14.4460     3.4119   326.5304 </r>
       <r>    14.5355     3.2388   326.8201 </r>
       <r>    14.6249     9.9673   327.7117 </r>
       <r>    14.7144    18.6653   329.3812 </r>
       <r>    14.8038    21.8898   331.3391 </r>
       <r>    14.8932    18.2708   332.9733 </r>
       <r>    14.9827    12.2321   334.0674 </r>
       <r>    15.0721     6.5204   334.6506 </r>
       <r>    15.1616     2.1136   334.8397 </r>
       <r>    15.2510     0.4809   334.8827 </r>
       <r>    15.3405     1.8771   335.0506 </r>
       <r>    15.4299     4.0523   335.4130 </r>
       <r>    15.5194     4.2189   335.7904 </r>
       <r>    15.6088     2.2940   335.9956 </r>
       <r>    15.6982     0.4501   336.0358 </r>
       <r>    15.7877    -0.1907   336.0188 </r>
       <r>    15.8771    -0.1534   336.0051 </r>
       <r>    15.9666    -0.0472   336.0008 </r>
       <r>    16.0560    -0.0083   336.0001 </r>
       <r>    16.1455    -0.0009   336.0000 </r>
       <r>    16.2349    -0.0001   336.0000 </r>
       <r>    16.3244    -0.0000   336.0000 </r>
       <r>    16.4138    -0.0000   336.0000 </r>
       <r>    16.5032    -0.0000   336.0000 </r>
       <r>    16.5927    -0.0000   336.0000 </r>
       <r>    16.6821    -0.0000   336.0000 </r>
       <r>    16.7716    -0.0000   336.0000 </r>
       <r>    16.8610     0.0000   336.0000 </r>
       <r>    16.9505     0.0000   336.0000 </r>
       <r>    17.0399     0.0000   336.0000 </r>
       <r>    17.1294     0.0000   336.0000 </r>
       <r>    17.2188     0.0000   336.0000 </r>
       <r>    17.3083     0.0000   336.0000 </r>
       <r>    17.3977     0.0000   336.0000 </r>
       <r>    17.4871     0.0000   336.0000 </r>
      </set>
     </set>
    </array>
   </total>
  </dos>
 </calculation>
 <structure name="finalpos" >
  <crystal>
   <varray name="basis" >
    <v>       8.74331558       0.00000000       0.00000000 </v>
    <v>       0.00000000       8.74331558       0.00000000 </v>
    <v>       0.00000000       0.00000000       8.74331558 </v>
   </varray>
   <i name="volume">    668.38771987 </i>
   <varray name="rec_basis" >
    <v>       0.11437309       0.00000000       0.00000000 </v>
    <v>       0.00000000       0.11437309       0.00000000 </v>
    <v>       0.00000000       0.00000000       0.11437309 </v>
   </varray>
  </crystal>
  <varray name="positions" >
   <v>       0.12806373       0.12278634       0.12450769 </v>
   <v>       0.12800114       0.37467470       0.37663231 </v>
   <v>       0.37517717       0.12574054       0.37638021 </v>
   <v>       0.37652585       0.37411071       0.12299943 </v>
   <v>       0.12416468       0.12669989       0.62673450 </v>
   <v>       0.12383050       0.37265676       0.87446629 </v>
   <v>       0.37726923       0.12921716       0.87582122 </v>
   <v>       0.37524991       0.37421045       0.62419485 </v>
   <v>       0.12736822       0.62562386       0.11958327 </v>
   <v>       0.12546960       0.87283325       0.37336017 </v>
   <v>       0.37275395       0.62263860       0.37855744 </v>
   <v>       0.37751161       0.87397171       0.12873708 </v>
   <v>       0.12327067       0.62114836       0.62290983 </v>
   <v>       0.12649806       0.87461731       0.87649844 </v>
   <v>       0.37294213       0.62549211       0.87765107 </v>
   <v>       0.37685838       0.87896877       0.62449847 </v>
   <v>       0.62803759       0.12289275       0.12401886 </v>
   <v>       0.62259826       0.37395136       0.37093308 </v>
   <v>       0.87673808       0.12323433       0.37614874 </v>
   <v>       0.87881552       0.37684907       0.12414062 </v>
   <v>       0.62699605       0.12013665       0.62148702 </v>
   <v>       0.62792473       0.37677658       0.87040074 </v>
   <v>       0.87525649       0.12555848       0.87936268 </v>
   <v>       0.87836423       0.37309926       0.62239683 </v>
   <v>       0.62538488       0.62760403       0.12601781 </v>
   <v>       0.62381124       0.87395441       0.37232539 </v>
   <v>       0.87789767       0.62904388       0.37316587 </v>
   <v>       0.87473632       0.87246070       0.12656079 </v>
   <v>       0.62457910       0.62633062       0.62600651 </v>
   <v>       0.62725577       0.87656238       0.87525981 </v>
   <v>       0.87396333       0.62182288       0.87291900 </v>
   <v>       0.87232054       0.87587585       0.62468932 </v>
   <v>       0.00013929       0.99900041       0.99749599 </v>
   <v>       0.99949193       0.24912675       0.25272617 </v>
   <v>       0.24916901       0.99740173       0.25053300 </v>
   <v>       0.24769945       0.24740617       0.99812615 </v>
   <v>       0.99984335       0.99876311       0.49818527 </v>
   <v>       0.00182560       0.24605241       0.75114160 </v>
   <v>       0.25199124       0.00347005       0.75011304 </v>
   <v>       0.24525121       0.25125886       0.50126685 </v>
   <v>       0.99949814       0.50100768       0.99952761 </v>
   <v>       0.00446812       0.75187072       0.24888105 </v>
   <v>       0.24794201       0.50431168       0.24974076 </v>
   <v>       0.24516219       0.74636751       0.00380651 </v>
   <v>       0.99937611       0.50224554       0.49629825 </v>
   <v>       0.00252825       0.74695737       0.74827181 </v>
   <v>       0.24936284       0.50093289       0.75198368 </v>
   <v>       0.24899887       0.75103306       0.49825439 </v>
   <v>       0.50594712       0.00068716       0.00149002 </v>
   <v>       0.50024868       0.24806669       0.25344905 </v>
   <v>       0.74741141       0.00114934       0.24802926 </v>
   <v>       0.75012955       0.25031557       0.99825163 </v>
   <v>       0.50111540       0.00151488       0.50106388 </v>
   <v>       0.50321769       0.24606840       0.75364203 </v>
   <v>       0.75242965       0.99862618       0.74982205 </v>
   <v>       0.74868218       0.24695050       0.49993218 </v>
   <v>       0.50199044       0.50158617       0.99352059 </v>
   <v>       0.49791156       0.75201658       0.25114464 </v>
   <v>       0.74632843       0.50540931       0.24780555 </v>
   <v>       0.75056334       0.74653786       0.99586233 </v>
   <v>       0.49909727       0.49856523       0.49710364 </v>
   <v>       0.49860200       0.75312363       0.74662772 </v>
   <v>       0.75233570       0.49990264       0.75086595 </v>
   <v>       0.74767576       0.74708985       0.50452932 </v>
  </varray>
 </structure>
</modeling>
