unknown system                          
           1
     8.743316    0.000000    0.000000
     0.000000    8.743316    0.000000
     0.000000    0.000000    8.743316
   C    Si
    32    32
Direct configuration=     1
   0.12806373  0.12278634  0.12450769
   0.12800114  0.37467470  0.37663231
   0.37517717  0.12574054  0.37638021
   0.37652585  0.37411071  0.12299943
   0.12416468  0.12669989  0.62673450
   0.12383050  0.37265676  0.87446629
   0.37726923  0.12921716  0.87582122
   0.37524991  0.37421045  0.62419485
   0.12736822  0.62562386  0.11958327
   0.12546960  0.87283325  0.37336017
   0.37275395  0.62263860  0.37855744
   0.37751161  0.87397171  0.12873708
   0.12327067  0.62114836  0.62290983
   0.12649806  0.87461731  0.87649844
   0.37294213  0.62549211  0.87765107
   0.37685838  0.87896877  0.62449847
   0.62803759  0.12289275  0.12401886
   0.62259826  0.37395136  0.37093308
   0.87673808  0.12323433  0.37614874
   0.87881552  0.37684907  0.12414062
   0.62699605  0.12013665  0.62148702
   0.62792473  0.37677658  0.87040074
   0.87525649  0.12555848  0.87936268
   0.87836423  0.37309926  0.62239683
   0.62538488  0.62760403  0.12601781
   0.62381124  0.87395441  0.37232539
   0.87789767  0.62904388  0.37316587
   0.87473632  0.87246070  0.12656079
   0.62457910  0.62633062  0.62600651
   0.62725577  0.87656238  0.87525981
   0.87396333  0.62182288  0.87291900
   0.87232054  0.87587585  0.62468932
   0.00013929  0.99900041  0.99749599
   0.99949193  0.24912675  0.25272617
   0.24916901  0.99740173  0.25053300
   0.24769945  0.24740617  0.99812615
   0.99984335  0.99876311  0.49818527
   0.00182560  0.24605241  0.75114160
   0.25199124  0.00347005  0.75011304
   0.24525121  0.25125886  0.50126685
   0.99949814  0.50100768  0.99952761
   0.00446812  0.75187072  0.24888105
   0.24794201  0.50431168  0.24974076
   0.24516219  0.74636751  0.00380651
   0.99937611  0.50224554  0.49629825
   0.00252825  0.74695737  0.74827181
   0.24936284  0.50093289  0.75198368
   0.24899887  0.75103306  0.49825439
   0.50594712  0.00068716  0.00149002
   0.50024868  0.24806669  0.25344905
   0.74741141  0.00114934  0.24802926
   0.75012955  0.25031557  0.99825163
   0.50111540  0.00151488  0.50106388
   0.50321769  0.24606840  0.75364203
   0.75242965  0.99862618  0.74982205
   0.74868218  0.24695050  0.49993218
   0.50199044  0.50158617  0.99352059
   0.49791156  0.75201658  0.25114464
   0.74632843  0.50540931  0.24780555
   0.75056334  0.74653786  0.99586233
   0.49909727  0.49856523  0.49710364
   0.49860200  0.75312363  0.74662772
   0.75233570  0.49990264  0.75086595
   0.74767576  0.74708985  0.50452932
