       N       E                     dE             d eps       ncg     rms          rms(c)
DAV:   1     0.669996782501E+03    0.67000E+03   -0.99565E+04  4704   0.111E+03
DAV:   2    -0.461363108395E+03   -0.11314E+04   -0.10707E+04  5784   0.221E+02
DAV:   3    -0.537207078386E+03   -0.75844E+02   -0.75122E+02  5656   0.563E+01
DAV:   4    -0.538911863173E+03   -0.17048E+01   -0.16978E+01  5736   0.911E+00
DAV:   5    -0.538957600806E+03   -0.45738E-01   -0.45660E-01  5600   0.143E+00    0.493E+01
DAV:   6    -0.481957349285E+03    0.57000E+02   -0.19099E+02  5360   0.235E+01    0.219E+01
DAV:   7    -0.480616975285E+03    0.13404E+01   -0.15908E+01  5904   0.709E+00    0.978E+00
DAV:   8    -0.480386668546E+03    0.23031E+00   -0.10345E+00  5384   0.198E+00    0.268E+00
DAV:   9    -0.480369618191E+03    0.17050E-01   -0.14693E-01  5464   0.833E-01    0.445E-01
DAV:  10    -0.480372633742E+03   -0.30156E-02   -0.14319E-02  5696   0.266E-01    0.247E-01
DAV:  11    -0.480373647490E+03   -0.10137E-02   -0.19718E-03  5256   0.114E-01    0.934E-02
DAV:  12    -0.480373726960E+03   -0.79469E-04   -0.38276E-04  6240   0.479E-02    0.415E-02
DAV:  13    -0.480373741745E+03   -0.14785E-04   -0.87048E-05  5144   0.222E-02    0.107E-02
DAV:  14    -0.480373747701E+03   -0.59562E-05   -0.69359E-06  5464   0.607E-03    0.557E-03
DAV:  15    -0.480373749418E+03   -0.17170E-05   -0.24553E-06  5720   0.350E-03    0.448E-03
DAV:  16    -0.480373749133E+03    0.28525E-06   -0.34379E-07  5840   0.153E-03    0.129E-03
DAV:  17    -0.480373749461E+03   -0.32817E-06   -0.10778E-07  5256   0.712E-04    0.660E-04
DAV:  18    -0.480373749488E+03   -0.27136E-07   -0.62555E-09  2760   0.219E-04    0.265E-04
DAV:  19    -0.480373749475E+03    0.12638E-07   -0.56507E-09  2688   0.169E-04    0.961E-05
DAV:  20    -0.480373749483E+03   -0.72396E-08   -0.77400E-10  2688   0.833E-05
   1 F= -.48037375E+03 E0= -.48037722E+03  d E =0.104204E-01
