unknown system                          
           1
     8.743316    0.000000    0.000000
     0.000000    8.743316    0.000000
     0.000000    0.000000    8.743316
   C    Si
    32    32
Direct configuration=     1
   0.12483741  0.12255596  0.12875127
   0.12083645  0.38209448  0.37152224
   0.38525236  0.12253513  0.37913345
   0.37340457  0.37656326  0.12677144
   0.12314132  0.12543451  0.62493943
   0.13109785  0.37130706  0.86969278
   0.36457479  0.12222846  0.87691023
   0.37609560  0.37696548  0.62613554
   0.12570460  0.62606777  0.12553997
   0.12417685  0.87261740  0.37598621
   0.37585223  0.62451636  0.37168157
   0.37873898  0.87929444  0.12122986
   0.12396666  0.62537221  0.62691801
   0.12485164  0.87938768  0.87325880
   0.37231595  0.62549205  0.87384478
   0.37286245  0.88133052  0.62314782
   0.62172412  0.12331604  0.12618273
   0.62242991  0.37918778  0.37351276
   0.87784403  0.12838430  0.37100066
   0.87326069  0.37795525  0.12387612
   0.63111484  0.12488927  0.62049090
   0.62098030  0.37562787  0.87463467
   0.86890793  0.12681449  0.87478249
   0.87450619  0.37261599  0.62838892
   0.62827934  0.62554637  0.12746758
   0.62005206  0.86933930  0.37339590
   0.87257079  0.62459040  0.37365460
   0.87467450  0.88009757  0.12539988
   0.62264300  0.62213348  0.62296901
   0.62987042  0.87118344  0.87973521
   0.87266569  0.62741805  0.87476574
   0.87425990  0.87243963  0.62603500
   0.00142824  0.99668745  0.99613843
   0.99514518  0.25344891  0.25412050
   0.25205627  0.00111201  0.25090760
   0.25329085  0.24898892  0.00024980
   0.99584395  0.99674617  0.50009950
   0.00065686  0.25154731  0.74628565
   0.25558164  0.00464372  0.74716865
   0.25233452  0.24714602  0.50008077
   0.00230061  0.50256803  0.99879350
   0.00271340  0.75079503  0.25083132
   0.24735160  0.49496019  0.25435214
   0.25038768  0.74984246  0.99949352
   0.99772968  0.49658703  0.50042364
   0.99615426  0.74539768  0.75235678
   0.24912479  0.49648810  0.75263429
   0.24940282  0.74951098  0.50196245
   0.50141565  0.00068305  0.00137365
   0.50336664  0.24905674  0.25228500
   0.75348909  0.00584301  0.24621863
   0.75320481  0.24891346  0.99609351
   0.49834760  0.99965049  0.49916291
   0.50234055  0.24898536  0.74905889
   0.74818115  0.99692256  0.74982206
   0.75321851  0.24721091  0.50158726
   0.50278743  0.49866440  0.99938623
   0.50344800  0.75087500  0.24490725
   0.74918228  0.49870181  0.24647725
   0.74772202  0.74992396  0.00115309
   0.50166670  0.49691321  0.50404663
   0.49685496  0.74879657  0.75214389
   0.74908116  0.50047256  0.74836226
   0.75412316  0.74822731  0.49878142
