       N       E                     dE             d eps       ncg     rms          rms(c)
DAV:   1     0.670918709846E+03    0.67092E+03   -0.99570E+04  4704   0.111E+03
DAV:   2    -0.461534789636E+03   -0.11325E+04   -0.10725E+04  5832   0.221E+02
DAV:   3    -0.536761464630E+03   -0.75227E+02   -0.74522E+02  5696   0.562E+01
DAV:   4    -0.538425766408E+03   -0.16643E+01   -0.16571E+01  5680   0.907E+00
DAV:   5    -0.538473030358E+03   -0.47264E-01   -0.47179E-01  5600   0.145E+00    0.494E+01
DAV:   6    -0.481321699845E+03    0.57151E+02   -0.19126E+02  5368   0.236E+01    0.219E+01
DAV:   7    -0.479994284165E+03    0.13274E+01   -0.16138E+01  5872   0.717E+00    0.979E+00
DAV:   8    -0.479760938062E+03    0.23335E+00   -0.10599E+00  5392   0.202E+00    0.276E+00
DAV:   9    -0.479743962234E+03    0.16976E-01   -0.15975E-01  5488   0.882E-01    0.461E-01
DAV:  10    -0.479746291906E+03   -0.23297E-02   -0.15135E-02  5680   0.285E-01    0.271E-01
DAV:  11    -0.479747662172E+03   -0.13703E-02   -0.27865E-03  5240   0.130E-01    0.112E-01
DAV:  12    -0.479747792854E+03   -0.13068E-03   -0.41806E-04  5968   0.518E-02    0.457E-02
DAV:  13    -0.479747810793E+03   -0.17940E-04   -0.15667E-04  5104   0.275E-02    0.104E-02
DAV:  14    -0.479747813449E+03   -0.26553E-05   -0.59429E-06  5712   0.631E-03    0.524E-03
DAV:  15    -0.479747815617E+03   -0.21681E-05   -0.33041E-06  5512   0.396E-03    0.296E-03
DAV:  16    -0.479747816002E+03   -0.38483E-06   -0.36866E-07  5880   0.161E-03    0.121E-03
DAV:  17    -0.479747816444E+03   -0.44271E-06   -0.11888E-07  5160   0.785E-04    0.759E-04
DAV:  18    -0.479747816409E+03    0.35569E-07   -0.62249E-09  2768   0.212E-04    0.276E-04
DAV:  19    -0.479747816382E+03    0.26550E-07   -0.97264E-09  2696   0.228E-04    0.122E-04
DAV:  20    -0.479747816393E+03   -0.10758E-07   -0.15244E-09  2688   0.113E-04    0.649E-05
DAV:  21    -0.479747816386E+03    0.68612E-08   -0.58850E-10  2688   0.524E-05
   1 F= -.47974782E+03 E0= -.47975144E+03  d E =0.108585E-01
