<?xml version="1.0" encoding="ISO-8859-1"?>
<modeling>
 <generator>
  <i name="program" type="string">vasp </i>
  <i name="version" type="string">6.2.1  </i>
  <i name="subversion" type="string">16May21 (build Jun 06 2020 10:27:25) complex                          parallel </i>
  <i name="platform" type="string">LinuxIFC </i>
  <i name="date" type="string">2024 01 25 </i>
  <i name="time" type="string">17:15:28 </i>
 </generator>
 <incar>
  <i type="int" name="NELM">    60</i>
  <i type="int" name="IBRION">     1</i>
  <i name="EDIFF">      0.00000001</i>
  <i type="int" name="NSW">     0</i>
  <i type="int" name="ISIF">     3</i>
  <i type="int" name="ISYM">     0</i>
  <i type="logical" name="LWAVE"> F  </i>
  <i type="logical" name="LCHARG"> F  </i>
  <i type="string" name="GGA">PE</i>
 </incar>
 <primitive_cell>
  <structure name="primitive_cell" >
   <crystal>
    <varray name="basis" >
     <v>       8.74331558       0.00000000       0.00000000 </v>
     <v>       0.00000000       8.74331558       0.00000000 </v>
     <v>       0.00000000       0.00000000       8.74331558 </v>
    </varray>
    <i name="volume">    668.38771987 </i>
    <varray name="rec_basis" >
     <v>       0.11437309       0.00000000       0.00000000 </v>
     <v>       0.00000000       0.11437309       0.00000000 </v>
     <v>       0.00000000       0.00000000       0.11437309 </v>
    </varray>
   </crystal>
   <varray name="positions" >
    <v>       0.12838532       0.12548232       0.13044679 </v>
    <v>       0.12140474       0.37931031       0.37183127 </v>
    <v>       0.37613996       0.12318047       0.37580393 </v>
    <v>       0.37881128       0.37372799       0.12656532 </v>
    <v>       0.12367759       0.12952094       0.63065627 </v>
    <v>       0.12804766       0.37332625       0.88020493 </v>
    <v>       0.37848064       0.12317639       0.87605500 </v>
    <v>       0.38031660       0.37794139       0.62382402 </v>
    <v>       0.12053229       0.62175191       0.12987095 </v>
    <v>       0.12762033       0.87795573       0.36999410 </v>
    <v>       0.37380641       0.62683535       0.36923141 </v>
    <v>       0.36859695       0.87429189       0.12531983 </v>
    <v>       0.12179852       0.62465501       0.62360919 </v>
    <v>       0.12518393       0.86678612       0.87032064 </v>
    <v>       0.38102353       0.61926895       0.87265776 </v>
    <v>       0.37439089       0.88170219       0.62645253 </v>
    <v>       0.63212916       0.12156093       0.11972015 </v>
    <v>       0.62567122       0.36887206       0.36655079 </v>
    <v>       0.87551585       0.12315161       0.37939825 </v>
    <v>       0.87611058       0.38000418       0.12319264 </v>
    <v>       0.62370908       0.12338274       0.63007802 </v>
    <v>       0.62764529       0.38055939       0.87987267 </v>
    <v>       0.87375954       0.12468669       0.87579595 </v>
    <v>       0.87700963       0.37552977       0.62679993 </v>
    <v>       0.62140034       0.62549162       0.12799836 </v>
    <v>       0.62632075       0.87045315       0.37421238 </v>
    <v>       0.87543469       0.62161295       0.37245362 </v>
    <v>       0.86842268       0.86743646       0.12209997 </v>
    <v>       0.61854540       0.61256794       0.62596693 </v>
    <v>       0.62646846       0.87333975       0.87843618 </v>
    <v>       0.87353278       0.62495150       0.87783396 </v>
    <v>       0.87582164       0.87617957       0.62451082 </v>
    <v>       0.99863592       0.99810813       0.99602998 </v>
    <v>       0.00148538       0.24989734       0.25197825 </v>
    <v>       0.24341411       0.00154762       0.24516719 </v>
    <v>       0.24814113       0.24725994       0.99602291 </v>
    <v>       0.00329338       0.99957999       0.50238811 </v>
    <v>       0.99655596       0.24639797       0.75337430 </v>
    <v>       0.25514210       0.00104714       0.75018170 </v>
    <v>       0.25970674       0.25010761       0.49482425 </v>
    <v>       0.00322023       0.50228808       0.00072700 </v>
    <v>       0.99692391       0.74910682       0.24952313 </v>
    <v>       0.24353310       0.50047322       0.25237663 </v>
    <v>       0.25664908       0.75067193       0.99245071 </v>
    <v>       0.00036531       0.49767320       0.50043321 </v>
    <v>       0.00062306       0.75132990       0.74661783 </v>
    <v>       0.25579987       0.50114193       0.75654391 </v>
    <v>       0.24841796       0.75030799       0.49858189 </v>
    <v>       0.50405365       0.99430154       0.00193658 </v>
    <v>       0.50032200       0.24546374       0.25305863 </v>
    <v>       0.76050173       0.99768713       0.24672477 </v>
    <v>       0.74887306       0.24852508       0.99502747 </v>
    <v>       0.49884358       0.00337936       0.49487075 </v>
    <v>       0.50106997       0.24474206       0.74563697 </v>
    <v>       0.74646297       0.00086860       0.75358639 </v>
    <v>       0.75315850       0.25315181       0.49625899 </v>
    <v>       0.50312779       0.50232333       0.00111115 </v>
    <v>       0.50550701       0.74958654       0.25127785 </v>
    <v>       0.75604616       0.49842296       0.25365806 </v>
    <v>       0.75091483       0.74374256       0.99804710 </v>
    <v>       0.49829362       0.49062306       0.49772667 </v>
    <v>       0.50224414       0.75327455       0.74974499 </v>
    <v>       0.75169941       0.49947664       0.74969111 </v>
    <v>       0.75186913       0.74920916       0.50297176 </v>
   </varray>
  </structure>
  <varray name="primitive_index" >
   <v type="int" >        1 </v>
   <v type="int" >        2 </v>
   <v type="int" >        3 </v>
   <v type="int" >        4 </v>
   <v type="int" >        5 </v>
   <v type="int" >        6 </v>
   <v type="int" >        7 </v>
   <v type="int" >        8 </v>
   <v type="int" >        9 </v>
   <v type="int" >       10 </v>
   <v type="int" >       11 </v>
   <v type="int" >       12 </v>
   <v type="int" >       13 </v>
   <v type="int" >       14 </v>
   <v type="int" >       15 </v>
   <v type="int" >       16 </v>
   <v type="int" >       17 </v>
   <v type="int" >       18 </v>
   <v type="int" >       19 </v>
   <v type="int" >       20 </v>
   <v type="int" >       21 </v>
   <v type="int" >       22 </v>
   <v type="int" >       23 </v>
   <v type="int" >       24 </v>
   <v type="int" >       25 </v>
   <v type="int" >       26 </v>
   <v type="int" >       27 </v>
   <v type="int" >       28 </v>
   <v type="int" >       29 </v>
   <v type="int" >       30 </v>
   <v type="int" >       31 </v>
   <v type="int" >       32 </v>
   <v type="int" >       33 </v>
   <v type="int" >       34 </v>
   <v type="int" >       35 </v>
   <v type="int" >       36 </v>
   <v type="int" >       37 </v>
   <v type="int" >       38 </v>
   <v type="int" >       39 </v>
   <v type="int" >       40 </v>
   <v type="int" >       41 </v>
   <v type="int" >       42 </v>
   <v type="int" >       43 </v>
   <v type="int" >       44 </v>
   <v type="int" >       45 </v>
   <v type="int" >       46 </v>
   <v type="int" >       47 </v>
   <v type="int" >       48 </v>
   <v type="int" >       49 </v>
   <v type="int" >       50 </v>
   <v type="int" >       51 </v>
   <v type="int" >       52 </v>
   <v type="int" >       53 </v>
   <v type="int" >       54 </v>
   <v type="int" >       55 </v>
   <v type="int" >       56 </v>
   <v type="int" >       57 </v>
   <v type="int" >       58 </v>
   <v type="int" >       59 </v>
   <v type="int" >       60 </v>
   <v type="int" >       61 </v>
   <v type="int" >       62 </v>
   <v type="int" >       63 </v>
   <v type="int" >       64 </v>
  </varray>
 </primitive_cell>
 <kpoints>
  <generation param="Monkhorst-Pack">
   <v type="int" name="divisions">       3        3        3 </v>
   <v name="usershift">      0.00000000       0.00000000       0.00000000 </v>
   <v name="genvec1">      0.33333333       0.00000000       0.00000000 </v>
   <v name="genvec2">      0.00000000       0.33333333       0.00000000 </v>
   <v name="genvec3">      0.00000000       0.00000000       0.33333333 </v>
   <v name="shift">      0.00000000       0.00000000       0.00000000 </v>
  </generation>
  <varray name="kpointlist" >
   <v>       0.00000000       0.00000000       0.00000000 </v>
   <v>       0.33333333       0.00000000       0.00000000 </v>
   <v>       0.00000000       0.33333333       0.00000000 </v>
   <v>       0.00000000       0.00000000       0.33333333 </v>
   <v>       0.33333333       0.33333333       0.00000000 </v>
   <v>       0.00000000       0.33333333       0.33333333 </v>
   <v>       0.33333333       0.00000000       0.33333333 </v>
   <v>      -0.33333333       0.33333333       0.00000000 </v>
   <v>      -0.33333333       0.00000000       0.33333333 </v>
   <v>       0.00000000      -0.33333333       0.33333333 </v>
   <v>       0.33333333       0.33333333       0.33333333 </v>
   <v>      -0.33333333       0.33333333       0.33333333 </v>
   <v>      -0.33333333      -0.33333333       0.33333333 </v>
   <v>       0.33333333      -0.33333333       0.33333333 </v>
  </varray>
  <varray name="weights" >
   <v>       0.03703704 </v>
   <v>       0.07407407 </v>
   <v>       0.07407407 </v>
   <v>       0.07407407 </v>
   <v>       0.07407407 </v>
   <v>       0.07407407 </v>
   <v>       0.07407407 </v>
   <v>       0.07407407 </v>
   <v>       0.07407407 </v>
   <v>       0.07407407 </v>
   <v>       0.07407407 </v>
   <v>       0.07407407 </v>
   <v>       0.07407407 </v>
   <v>       0.07407407 </v>
  </varray>
 </kpoints>
 <parameters>
  <separator name="general" >
   <i type="string" name="SYSTEM">unknown system</i>
   <i type="logical" name="LCOMPAT"> F  </i>
  </separator>
  <separator name="electronic" >
   <i type="string" name="PREC">normal</i>
   <i name="ENMAX">    400.00000000</i>
   <i name="ENAUG">    644.87300000</i>
   <i name="EDIFF">      0.00000001</i>
   <i type="int" name="IALGO">    38</i>
   <i type="int" name="IWAVPR">    10</i>
   <i type="int" name="NBANDS">   168</i>
   <i type="int" name="NBANDSLOW">    -1</i>
   <i type="int" name="NBANDSHIGH">    -1</i>
   <i name="NELECT">    256.00000000</i>
   <i type="int" name="TURBO">     0</i>
   <i type="int" name="IRESTART">     0</i>
   <i type="int" name="NREBOOT">     0</i>
   <i type="int" name="NMIN">     0</i>
   <i name="EREF">      0.00000000</i>
   <separator name="electronic smearing" >
    <i type="int" name="ISMEAR">     1</i>
    <i name="SIGMA">      0.20000000</i>
    <i name="KSPACING">      0.50000000</i>
    <i type="logical" name="KGAMMA"> T  </i>
    <i type="logical" name="KBLOWUP"> T  </i>
   </separator>
   <separator name="electronic projectors" >
    <i type="logical" name="LREAL"> F  </i>
    <v name="ROPT">      0.00000000      0.00000000</v>
    <i type="int" name="LMAXPAW">  -100</i>
    <i type="int" name="LMAXMIX">     2</i>
    <i type="logical" name="NLSPLINE"> F  </i>
   </separator>
   <separator name="electronic startup" >
    <i type="int" name="ISTART">     0</i>
    <i type="int" name="ICHARG">     2</i>
    <i type="int" name="INIWAV">     1</i>
   </separator>
   <separator name="electronic spin" >
    <i type="int" name="ISPIN">     1</i>
    <i type="logical" name="LNONCOLLINEAR"> F  </i>
    <v name="MAGMOM">      1.00000000      1.00000000      1.00000000      1.00000000      1.00000000      1.00000000      1.00000000      1.00000000      1.00000000      1.00000000      1.00000000      1.00000000      1.00000000      1.00000000      1.00000000      1.00000000      1.00000000      1.00000000      1.00000000      1.00000000
      1.00000000      1.00000000      1.00000000      1.00000000      1.00000000      1.00000000      1.00000000      1.00000000      1.00000000      1.00000000      1.00000000      1.00000000      1.00000000      1.00000000      1.00000000      1.00000000      1.00000000      1.00000000      1.00000000      1.00000000
      1.00000000      1.00000000      1.00000000      1.00000000      1.00000000      1.00000000      1.00000000      1.00000000      1.00000000      1.00000000      1.00000000      1.00000000      1.00000000      1.00000000      1.00000000      1.00000000      1.00000000      1.00000000      1.00000000      1.00000000
      1.00000000      1.00000000      1.00000000      1.00000000</v>
    <i name="NUPDOWN">     -1.00000000</i>
    <i type="logical" name="LSORBIT"> F  </i>
    <v name="SAXIS">      0.00000000      0.00000000      1.00000000</v>
    <i type="logical" name="LSPIRAL"> F  </i>
    <v name="QSPIRAL">      0.00000000      0.00000000      0.00000000</v>
    <i type="logical" name="LZEROZ"> F  </i>
   </separator>
   <separator name="electronic exchange-correlation" >
    <i type="logical" name="LASPH"> F  </i>
    <i type="logical" name="LMETAGGA"> F  </i>
   </separator>
   <separator name="electronic convergence" >
    <i type="int" name="NELM">    60</i>
    <i type="int" name="NELMDL">    -5</i>
    <i type="int" name="NELMIN">     2</i>
    <i name="ENINI">    400.00000000</i>
    <separator name="electronic convergence detail" >
     <i type="logical" name="LDIAG"> T  </i>
     <i type="logical" name="LSUBROT"> F  </i>
     <i name="WEIMIN">      0.00000000</i>
     <i name="EBREAK">      0.00000000</i>
     <i name="DEPER">      0.30000000</i>
     <i type="int" name="NRMM">     4</i>
     <i name="TIME">      0.40000000</i>
    </separator>
   </separator>
   <separator name="electronic mixer" >
    <i name="AMIX">      0.40000000</i>
    <i name="BMIX">      1.00000000</i>
    <i name="AMIN">      0.10000000</i>
    <i name="AMIX_MAG">      1.60000000</i>
    <i name="BMIX_MAG">      1.00000000</i>
    <separator name="electronic mixer details" >
     <i type="int" name="IMIX">     4</i>
     <i type="logical" name="MIXFIRST"> F  </i>
     <i type="int" name="MAXMIX">   -45</i>
     <i name="WC">    100.00000000</i>
     <i type="int" name="INIMIX">     1</i>
     <i type="int" name="MIXPRE">     1</i>
     <i type="int" name="MREMOVE">     5</i>
    </separator>
   </separator>
   <separator name="electronic dipolcorrection" >
    <i type="logical" name="LDIPOL"> F  </i>
    <i type="logical" name="LMONO"> F  </i>
    <i type="int" name="IDIPOL">     0</i>
    <i name="EPSILON">      1.00000000</i>
    <v name="DIPOL">   -100.00000000   -100.00000000   -100.00000000</v>
    <i name="EFIELD">      0.00000000</i>
   </separator>
  </separator>
  <separator name="grids" >
   <i type="int" name="NGX">    48</i>
   <i type="int" name="NGY">    48</i>
   <i type="int" name="NGZ">    48</i>
   <i type="int" name="NGXF">    96</i>
   <i type="int" name="NGYF">    96</i>
   <i type="int" name="NGZF">    96</i>
   <i type="logical" name="ADDGRID"> F  </i>
  </separator>
  <separator name="ionic" >
   <i type="int" name="NSW">     0</i>
   <i type="int" name="IBRION">    -1</i>
   <i type="int" name="MDALGO">     0</i>
   <i type="int" name="ISIF">     3</i>
   <i name="PSTRESS">      0.00000000</i>
   <i name="EDIFFG">      0.00000010</i>
   <i type="int" name="NFREE">     0</i>
   <i name="POTIM">      0.50000000</i>
   <i name="SMASS">     -3.00000000</i>
   <i name="SCALEE">      1.00000000</i>
  </separator>
  <separator name="ionic md" >
   <i name="TEBEG">      0.00010000</i>
   <i name="TEEND">      0.00010000</i>
   <i type="int" name="NBLOCK">     1</i>
   <i type="int" name="KBLOCK">     1</i>
   <i type="int" name="NPACO">   256</i>
   <i name="APACO">     16.00000000</i>
  </separator>
  <separator name="symmetry" >
   <i type="int" name="ISYM">     0</i>
   <i name="SYMPREC">      0.00001000</i>
  </separator>
  <separator name="dos" >
   <i type="int" name="LORBIT">     0</i>
   <v name="RWIGS">     -1.00000000     -1.00000000</v>
   <i type="int" name="NEDOS">   301</i>
   <i name="EMIN">     10.00000000</i>
   <i name="EMAX">    -10.00000000</i>
   <i name="EFERMI">      0.00000000</i>
  </separator>
  <separator name="writing" >
   <i type="int" name="NWRITE">     2</i>
   <i type="logical" name="LWAVE"> F  </i>
   <i type="logical" name="LDOWNSAMPLE"> F  </i>
   <i type="logical" name="LCHARG"> F  </i>
   <i type="logical" name="LPARD"> F  </i>
   <i type="logical" name="LVTOT"> F  </i>
   <i type="logical" name="LVHAR"> F  </i>
   <i type="logical" name="LELF"> F  </i>
   <i type="logical" name="LOPTICS"> F  </i>
   <v name="STM">      0.00000000      0.00000000      0.00000000      0.00000000      0.00000000      0.00000000      0.00000000</v>
  </separator>
  <separator name="performance" >
   <i type="int" name="NPAR">     8</i>
   <i type="int" name="NSIM">     4</i>
   <i type="int" name="NBLK">    -1</i>
   <i type="logical" name="LPLANE"> T  </i>
   <i type="logical" name="LSCALAPACK"> T  </i>
   <i type="logical" name="LSCAAWARE"> F  </i>
   <i type="logical" name="LSCALU"> F  </i>
   <i type="logical" name="LASYNC"> F  </i>
   <i type="logical" name="LORBITALREAL"> F  </i>
  </separator>
  <separator name="miscellaneous" >
   <i type="int" name="IDIOT">     3</i>
   <i type="int" name="PHON_NSTRUCT">    -1</i>
   <i type="logical" name="LMUSIC"> F  </i>
   <v name="POMASS">     12.01100000     28.08500000</v>
   <v name="DARWINR">      0.00000000      0.00000000</v>
   <v name="DARWINV">      1.00000000      1.00000000</v>
   <i type="logical" name="LCORR"> T  </i>
  </separator>
  <i type="logical" name="GGA_COMPAT"> T  </i>
  <i type="logical" name="LBERRY"> F  </i>
  <i type="int" name="ICORELEVEL">     0</i>
  <i type="logical" name="LDAU"> F  </i>
  <i type="int" name="I_CONSTRAINED_M">     0</i>
  <separator name="electronic exchange-correlation" >
   <i type="string" name="GGA">PE</i>
   <i type="int" name="VOSKOWN">     0</i>
   <i type="logical" name="LHFCALC"> F  </i>
   <i type="string" name="PRECFOCK"></i>
   <i type="logical" name="LSYMGRAD"> F  </i>
   <i type="logical" name="LHFONE"> F  </i>
   <i type="logical" name="LRHFCALC"> F  </i>
   <i type="logical" name="LTHOMAS"> F  </i>
   <i type="logical" name="LMODELHF"> F  </i>
   <i type="logical" name="LFOCKACE"> F  </i>
   <i name="ENCUT4O">     -1.00000000</i>
   <i type="int" name="EXXOEP">     0</i>
   <i type="int" name="FOURORBIT">     0</i>
   <i name="AEXX">      0.00000000</i>
   <i name="HFALPHA">      0.00000000</i>
   <i name="MCALPHA">      0.00000000</i>
   <i name="ALDAX">      1.00000000</i>
   <i name="AGGAX">      1.00000000</i>
   <i name="ALDAC">      1.00000000</i>
   <i name="AGGAC">      1.00000000</i>
   <i type="int" name="NKREDX">     1</i>
   <i type="int" name="NKREDY">     1</i>
   <i type="int" name="NKREDZ">     1</i>
   <i type="logical" name="SHIFTRED"> F  </i>
   <i type="logical" name="ODDONLY"> F  </i>
   <i type="logical" name="EVENONLY"> F  </i>
   <i type="int" name="LMAXFOCK">     0</i>
   <i type="int" name="NMAXFOCKAE">     0</i>
   <i type="logical" name="LFOCKAEDFT"> F  </i>
   <i name="HFSCREEN">      0.00000000</i>
   <i name="HFSCREENC">      0.00000000</i>
   <i type="int" name="NBANDSGWLOW">     0</i>
  </separator>
  <separator name="vdW DFT" >
   <i type="logical" name="LUSE_VDW"> F  </i>
   <i name="Zab_VDW">     -0.84910000</i>
   <i name="PARAM1">      0.12340000</i>
   <i name="PARAM2">      1.00000000</i>
   <i name="PARAM3">      0.00000000</i>
  </separator>
  <separator name="model GW" >
   <i type="int" name="MODEL_GW">     0</i>
   <i name="MODEL_EPS0">      6.26613487</i>
   <i name="MODEL_ALPHA">      1.00000000</i>
  </separator>
  <separator name="linear response parameters" >
   <i type="logical" name="LEPSILON"> F  </i>
   <i type="logical" name="LRPA"> F  </i>
   <i type="logical" name="LNABLA"> F  </i>
   <i type="logical" name="LVEL"> F  </i>
   <i type="int" name="KINTER">     0</i>
   <i name="CSHIFT">      0.10000000</i>
   <i name="OMEGAMAX">     -1.00000000</i>
   <i name="DEG_THRESHOLD">      0.00200000</i>
   <i name="RTIME">     -0.10000000</i>
   <i name="WPLASMAI">      0.00000000</i>
   <v name="DFIELD">      0.00000000      0.00000000      0.00000000</v>
   <v name="WPLASMA">      0.00000000      0.00000000      0.00000000      0.00000000      0.00000000      0.00000000      0.00000000      0.00000000      0.00000000</v>
  </separator>
  <separator name="orbital magnetization" >
   <i type="logical" name="NUCIND"> F  </i>
   <v name="MAGPOS">      0.00000000      0.00000000      0.00000000</v>
   <i type="logical" name="LNICSALL"> T  </i>
   <i type="logical" name="ORBITALMAG"> F  </i>
   <i type="logical" name="LMAGBLOCH"> F  </i>
   <i type="logical" name="LCHIMAG"> F  </i>
   <i type="logical" name="LGAUGE"> T  </i>
   <i type="int" name="MAGATOM">     0</i>
   <v name="MAGDIPOL">      0.00000000      0.00000000      0.00000000</v>
   <v name="AVECCONST">      0.00000000      0.00000000      0.00000000</v>
  </separator>
  <separator name="response functions" >
   <i type="logical" name="LFINITE_TEMPERATURE"> F  </i>
   <i type="logical" name="LADDER"> F  </i>
   <i type="logical" name="LRPAFORCE"> F  </i>
   <i type="logical" name="LFXC"> F  </i>
   <i type="logical" name="LHARTREE"> T  </i>
   <i type="int" name="IBSE">     0</i>
   <v type="int" name="KPOINT">    -1     0     0     0</v>
   <i type="logical" name="LTCTC"> F  </i>
   <i type="logical" name="LTCTE"> F  </i>
   <i type="logical" name="LTETE"> F  </i>
   <i type="logical" name="LTRIPLET"> F  </i>
   <i type="logical" name="LFXCEPS"> F  </i>
   <i type="logical" name="LFXHEG"> F  </i>
   <i type="int" name="NATURALO">     2</i>
   <i type="logical" name="LHOLEGF"> F  </i>
   <i type="logical" name="L2ORDER"> F  </i>
   <i type="logical" name="LDMP1"> F  </i>
   <i type="logical" name="LMP2LT"> F  </i>
   <i type="logical" name="LSMP2LT"> F  </i>
   <i type="logical" name="LGWLF"> F  </i>
   <i name="ENCUTGW">     -2.00000000</i>
   <i name="ENCUTGWSOFT">     -2.00000000</i>
   <i name="ENCUTLF">     -1.00000000</i>
   <i type="logical" name="LESF_SPLINES"> F  </i>
   <i type="int" name="LMAXMP2">    -1</i>
   <i name="SCISSOR">      0.00000000</i>
   <i type="int" name="NOMEGA">     0</i>
   <i type="int" name="NOMEGAR">     0</i>
   <i type="int" name="NBANDSGW">    -1</i>
   <i type="int" name="NBANDSO">    -1</i>
   <i type="int" name="NBANDSV">    -1</i>
   <i type="int" name="NELM">    60</i>
   <i type="int" name="NELMHF">     1</i>
   <i type="int" name="DIM">     3</i>
   <i type="int" name="IESPILON">     4</i>
   <i type="int" name="ANTIRES">     0</i>
   <i name="OMEGAMAX">    -30.00000000</i>
   <i name="OMEGAMIN">    -30.00000000</i>
   <i name="OMEGATL">   -200.00000000</i>
   <i type="int" name="OMEGAGRID">     0</i>
   <i name="CSHIFT">     -0.10000000</i>
   <i type="logical" name="LSELFENERGY"> F  </i>
   <i type="logical" name="LSPECTRAL"> F  </i>
   <i type="logical" name="LSPECTRALGW"> F  </i>
   <i type="logical" name="LSINGLES"> F  </i>
   <i type="logical" name="LFERMIGW"> F  </i>
   <i type="logical" name="ODDONLYGW"> F  </i>
   <i type="logical" name="EVENONLYGW"> F  </i>
   <i type="int" name="NKREDLFX">     1</i>
   <i type="int" name="NKREDLFY">     1</i>
   <i type="int" name="NKREDLFZ">     1</i>
   <i type="int" name="MAXMEM">  2800</i>
   <i type="int" name="TELESCOPE">     0</i>
   <i type="int" name="NTAUPAR">    -1</i>
   <i type="int" name="NOMEGAPAR">    -1</i>
   <i name="DAMP_NEWTON">      0.80000001</i>
   <i name="LAMBDA">      1.00000000</i>
  </separator>
  <separator name="External order field" >
   <i name="OFIELD_KAPPA">      0.00000000</i>
   <v name="OFIELD_K">      0.00000000      0.00000000      0.00000000</v>
   <i name="OFIELD_Q6_NEAR">      0.00000000</i>
   <i name="OFIELD_Q6_FAR">      0.00000000</i>
   <i name="OFIELD_A">      0.00000000</i>
  </separator>
 </parameters>
 <atominfo>
  <atoms>      64 </atoms>
  <types>       2 </types>
  <array name="atoms" >
   <dimension dim="1">ion</dimension>
   <field type="string">element</field>
   <field type="int">atomtype</field>
   <set>
    <rc><c>C </c><c>   1</c></rc>
    <rc><c>C </c><c>   1</c></rc>
    <rc><c>C </c><c>   1</c></rc>
    <rc><c>C </c><c>   1</c></rc>
    <rc><c>C </c><c>   1</c></rc>
    <rc><c>C </c><c>   1</c></rc>
    <rc><c>C </c><c>   1</c></rc>
    <rc><c>C </c><c>   1</c></rc>
    <rc><c>C </c><c>   1</c></rc>
    <rc><c>C </c><c>   1</c></rc>
    <rc><c>C </c><c>   1</c></rc>
    <rc><c>C </c><c>   1</c></rc>
    <rc><c>C </c><c>   1</c></rc>
    <rc><c>C </c><c>   1</c></rc>
    <rc><c>C </c><c>   1</c></rc>
    <rc><c>C </c><c>   1</c></rc>
    <rc><c>C </c><c>   1</c></rc>
    <rc><c>C </c><c>   1</c></rc>
    <rc><c>C </c><c>   1</c></rc>
    <rc><c>C </c><c>   1</c></rc>
    <rc><c>C </c><c>   1</c></rc>
    <rc><c>C </c><c>   1</c></rc>
    <rc><c>C </c><c>   1</c></rc>
    <rc><c>C </c><c>   1</c></rc>
    <rc><c>C </c><c>   1</c></rc>
    <rc><c>C </c><c>   1</c></rc>
    <rc><c>C </c><c>   1</c></rc>
    <rc><c>C </c><c>   1</c></rc>
    <rc><c>C </c><c>   1</c></rc>
    <rc><c>C </c><c>   1</c></rc>
    <rc><c>C </c><c>   1</c></rc>
    <rc><c>C </c><c>   1</c></rc>
    <rc><c>Si</c><c>   2</c></rc>
    <rc><c>Si</c><c>   2</c></rc>
    <rc><c>Si</c><c>   2</c></rc>
    <rc><c>Si</c><c>   2</c></rc>
    <rc><c>Si</c><c>   2</c></rc>
    <rc><c>Si</c><c>   2</c></rc>
    <rc><c>Si</c><c>   2</c></rc>
    <rc><c>Si</c><c>   2</c></rc>
    <rc><c>Si</c><c>   2</c></rc>
    <rc><c>Si</c><c>   2</c></rc>
    <rc><c>Si</c><c>   2</c></rc>
    <rc><c>Si</c><c>   2</c></rc>
    <rc><c>Si</c><c>   2</c></rc>
    <rc><c>Si</c><c>   2</c></rc>
    <rc><c>Si</c><c>   2</c></rc>
    <rc><c>Si</c><c>   2</c></rc>
    <rc><c>Si</c><c>   2</c></rc>
    <rc><c>Si</c><c>   2</c></rc>
    <rc><c>Si</c><c>   2</c></rc>
    <rc><c>Si</c><c>   2</c></rc>
    <rc><c>Si</c><c>   2</c></rc>
    <rc><c>Si</c><c>   2</c></rc>
    <rc><c>Si</c><c>   2</c></rc>
    <rc><c>Si</c><c>   2</c></rc>
    <rc><c>Si</c><c>   2</c></rc>
    <rc><c>Si</c><c>   2</c></rc>
    <rc><c>Si</c><c>   2</c></rc>
    <rc><c>Si</c><c>   2</c></rc>
    <rc><c>Si</c><c>   2</c></rc>
    <rc><c>Si</c><c>   2</c></rc>
    <rc><c>Si</c><c>   2</c></rc>
    <rc><c>Si</c><c>   2</c></rc>
   </set>
  </array>
  <array name="atomtypes" >
   <dimension dim="1">type</dimension>
   <field type="int">atomspertype</field>
   <field type="string">element</field>
   <field>mass</field>
   <field>valence</field>
   <field type="string">pseudopotential</field>
   <set>
    <rc><c>  32</c><c>C </c><c>     12.01100000</c><c>      4.00000000</c><c>  PAW_PBE C 08Apr2002                   </c></rc>
    <rc><c>  32</c><c>Si</c><c>     28.08500000</c><c>      4.00000000</c><c>  PAW_PBE Si 05Jan2001                  </c></rc>
   </set>
  </array>
 </atominfo>
 <structure name="initialpos" >
  <crystal>
   <varray name="basis" >
    <v>       8.74331558       0.00000000       0.00000000 </v>
    <v>       0.00000000       8.74331558       0.00000000 </v>
    <v>       0.00000000       0.00000000       8.74331558 </v>
   </varray>
   <i name="volume">    668.38771987 </i>
   <varray name="rec_basis" >
    <v>       0.11437309       0.00000000       0.00000000 </v>
    <v>       0.00000000       0.11437309       0.00000000 </v>
    <v>       0.00000000       0.00000000       0.11437309 </v>
   </varray>
  </crystal>
  <varray name="positions" >
   <v>       0.12838532       0.12548232       0.13044679 </v>
   <v>       0.12140474       0.37931031       0.37183127 </v>
   <v>       0.37613996       0.12318047       0.37580393 </v>
   <v>       0.37881128       0.37372799       0.12656532 </v>
   <v>       0.12367759       0.12952094       0.63065627 </v>
   <v>       0.12804766       0.37332625       0.88020493 </v>
   <v>       0.37848064       0.12317639       0.87605500 </v>
   <v>       0.38031660       0.37794139       0.62382402 </v>
   <v>       0.12053229       0.62175191       0.12987095 </v>
   <v>       0.12762033       0.87795573       0.36999410 </v>
   <v>       0.37380641       0.62683535       0.36923141 </v>
   <v>       0.36859695       0.87429189       0.12531983 </v>
   <v>       0.12179852       0.62465501       0.62360919 </v>
   <v>       0.12518393       0.86678612       0.87032064 </v>
   <v>       0.38102353       0.61926895       0.87265776 </v>
   <v>       0.37439089       0.88170219       0.62645253 </v>
   <v>       0.63212916       0.12156093       0.11972015 </v>
   <v>       0.62567122       0.36887206       0.36655079 </v>
   <v>       0.87551585       0.12315161       0.37939825 </v>
   <v>       0.87611058       0.38000418       0.12319264 </v>
   <v>       0.62370908       0.12338274       0.63007802 </v>
   <v>       0.62764529       0.38055939       0.87987267 </v>
   <v>       0.87375954       0.12468669       0.87579595 </v>
   <v>       0.87700963       0.37552977       0.62679993 </v>
   <v>       0.62140034       0.62549162       0.12799836 </v>
   <v>       0.62632075       0.87045315       0.37421238 </v>
   <v>       0.87543469       0.62161295       0.37245362 </v>
   <v>       0.86842268       0.86743646       0.12209997 </v>
   <v>       0.61854540       0.61256794       0.62596693 </v>
   <v>       0.62646846       0.87333975       0.87843618 </v>
   <v>       0.87353278       0.62495150       0.87783396 </v>
   <v>       0.87582164       0.87617957       0.62451082 </v>
   <v>       0.99863592       0.99810813       0.99602998 </v>
   <v>       0.00148538       0.24989734       0.25197825 </v>
   <v>       0.24341411       0.00154762       0.24516719 </v>
   <v>       0.24814113       0.24725994       0.99602291 </v>
   <v>       0.00329338       0.99957999       0.50238811 </v>
   <v>       0.99655596       0.24639797       0.75337430 </v>
   <v>       0.25514210       0.00104714       0.75018170 </v>
   <v>       0.25970674       0.25010761       0.49482425 </v>
   <v>       0.00322023       0.50228808       0.00072700 </v>
   <v>       0.99692391       0.74910682       0.24952313 </v>
   <v>       0.24353310       0.50047322       0.25237663 </v>
   <v>       0.25664908       0.75067193       0.99245071 </v>
   <v>       0.00036531       0.49767320       0.50043321 </v>
   <v>       0.00062306       0.75132990       0.74661783 </v>
   <v>       0.25579987       0.50114193       0.75654391 </v>
   <v>       0.24841796       0.75030799       0.49858189 </v>
   <v>       0.50405365       0.99430154       0.00193658 </v>
   <v>       0.50032200       0.24546374       0.25305863 </v>
   <v>       0.76050173       0.99768713       0.24672477 </v>
   <v>       0.74887306       0.24852508       0.99502747 </v>
   <v>       0.49884358       0.00337936       0.49487075 </v>
   <v>       0.50106997       0.24474206       0.74563697 </v>
   <v>       0.74646297       0.00086860       0.75358639 </v>
   <v>       0.75315850       0.25315181       0.49625899 </v>
   <v>       0.50312779       0.50232333       0.00111115 </v>
   <v>       0.50550701       0.74958654       0.25127785 </v>
   <v>       0.75604616       0.49842296       0.25365806 </v>
   <v>       0.75091483       0.74374256       0.99804710 </v>
   <v>       0.49829362       0.49062306       0.49772667 </v>
   <v>       0.50224414       0.75327455       0.74974499 </v>
   <v>       0.75169941       0.49947664       0.74969111 </v>
   <v>       0.75186913       0.74920916       0.50297176 </v>
  </varray>
 </structure>
 <calculation>
  <scstep>
   <time name="dav">   14.78   14.83</time>
   <time name="total">   14.91   14.96</time>
   <energy>
    <i name="alphaZ">    354.85177120 </i>
    <i name="ewald">  -9075.77840965 </i>
    <i name="hartreedc">   -674.55956575 </i>
    <i name="XCdc">    145.90058987 </i>
    <i name="pawpsdc">   6292.66707184 </i>
    <i name="pawaedc">  -5747.90303932 </i>
    <i name="eentropy">      0.01367642 </i>
    <i name="bandstr">   1369.55157203 </i>
    <i name="atom">   8006.17504320 </i>
    <i name="e_fr_energy">    670.91870985 </i>
    <i name="e_wo_entrp">    670.90503342 </i>
    <i name="e_0_energy">    670.91415104 </i>
   </energy>
  </scstep>
  <scstep>
   <time name="dav">   18.74   18.80</time>
   <time name="total">   18.75   18.81</time>
   <energy>
    <i name="e_fr_energy">   -461.53478964 </i>
    <i name="e_wo_entrp">   -461.55430131 </i>
    <i name="e_0_energy">   -461.54129353 </i>
   </energy>
  </scstep>
  <scstep>
   <time name="dav">   23.48   24.33</time>
   <time name="total">   23.48   24.33</time>
   <energy>
    <i name="e_fr_energy">   -536.76146463 </i>
    <i name="e_wo_entrp">   -536.78536724 </i>
    <i name="e_0_energy">   -536.76943217 </i>
   </energy>
  </scstep>
  <scstep>
   <time name="dav">   17.35   17.46</time>
   <time name="total">   17.36   17.46</time>
   <energy>
    <i name="e_fr_energy">   -538.42576641 </i>
    <i name="e_wo_entrp">   -538.45009760 </i>
    <i name="e_0_energy">   -538.43387681 </i>
   </energy>
  </scstep>
  <scstep>
   <time name="dav">   16.34   16.38</time>
   <time name="total">   16.58   16.62</time>
   <energy>
    <i name="e_fr_energy">   -538.47303036 </i>
    <i name="e_wo_entrp">   -538.49729859 </i>
    <i name="e_0_energy">   -538.48111977 </i>
   </energy>
  </scstep>
  <scstep>
   <time name="dav">   16.54   16.58</time>
   <time name="total">   16.86   16.90</time>
   <energy>
    <i name="e_fr_energy">   -481.32169985 </i>
    <i name="e_wo_entrp">   -481.33379833 </i>
    <i name="e_0_energy">   -481.32573267 </i>
   </energy>
  </scstep>
  <scstep>
   <time name="dav">   16.29   16.32</time>
   <time name="total">   16.80   16.85</time>
   <energy>
    <i name="e_fr_energy">   -479.99428416 </i>
    <i name="e_wo_entrp">   -480.00508184 </i>
    <i name="e_0_energy">   -479.99788339 </i>
   </energy>
  </scstep>
  <scstep>
   <time name="dav">   15.12   15.15</time>
   <time name="total">   15.50   15.56</time>
   <energy>
    <i name="e_fr_energy">   -479.76093806 </i>
    <i name="e_wo_entrp">   -479.77189533 </i>
    <i name="e_0_energy">   -479.76459048 </i>
   </energy>
  </scstep>
  <scstep>
   <time name="dav">   15.34   15.37</time>
   <time name="total">   15.71   15.74</time>
   <energy>
    <i name="e_fr_energy">   -479.74396223 </i>
    <i name="e_wo_entrp">   -479.75480518 </i>
    <i name="e_0_energy">   -479.74757655 </i>
   </energy>
  </scstep>
  <scstep>
   <time name="dav">   22.98   23.01</time>
   <time name="total">   23.37   23.45</time>
   <energy>
    <i name="e_fr_energy">   -479.74629191 </i>
    <i name="e_wo_entrp">   -479.75715981 </i>
    <i name="e_0_energy">   -479.74991454 </i>
   </energy>
  </scstep>
  <scstep>
   <time name="dav">   15.28   15.31</time>
   <time name="total">   15.67   15.72</time>
   <energy>
    <i name="e_fr_energy">   -479.74766217 </i>
    <i name="e_wo_entrp">   -479.75852683 </i>
    <i name="e_0_energy">   -479.75128373 </i>
   </energy>
  </scstep>
  <scstep>
   <time name="dav">   17.42   17.45</time>
   <time name="total">   18.03   18.15</time>
   <energy>
    <i name="e_fr_energy">   -479.74779285 </i>
    <i name="e_wo_entrp">   -479.75864937 </i>
    <i name="e_0_energy">   -479.75141169 </i>
   </energy>
  </scstep>
  <scstep>
   <time name="dav">   14.96   14.99</time>
   <time name="total">   15.33   15.35</time>
   <energy>
    <i name="e_fr_energy">   -479.74781079 </i>
    <i name="e_wo_entrp">   -479.75866978 </i>
    <i name="e_0_energy">   -479.75143046 </i>
   </energy>
  </scstep>
  <scstep>
   <time name="dav">   16.35   16.40</time>
   <time name="total">   16.77   16.82</time>
   <energy>
    <i name="e_fr_energy">   -479.74781345 </i>
    <i name="e_wo_entrp">   -479.75867183 </i>
    <i name="e_0_energy">   -479.75143291 </i>
   </energy>
  </scstep>
  <scstep>
   <time name="dav">   17.08   17.12</time>
   <time name="total">   17.73   17.80</time>
   <energy>
    <i name="e_fr_energy">   -479.74781562 </i>
    <i name="e_wo_entrp">   -479.75867418 </i>
    <i name="e_0_energy">   -479.75143514 </i>
   </energy>
  </scstep>
  <scstep>
   <time name="dav">   16.66   16.71</time>
   <time name="total">   17.07   17.15</time>
   <energy>
    <i name="e_fr_energy">   -479.74781600 </i>
    <i name="e_wo_entrp">   -479.75867464 </i>
    <i name="e_0_energy">   -479.75143555 </i>
   </energy>
  </scstep>
  <scstep>
   <time name="dav">   15.02   15.07</time>
   <time name="total">   15.40   15.44</time>
   <energy>
    <i name="e_fr_energy">   -479.74781644 </i>
    <i name="e_wo_entrp">   -479.75867501 </i>
    <i name="e_0_energy">   -479.75143597 </i>
   </energy>
  </scstep>
  <scstep>
   <time name="dav">    9.73    9.75</time>
   <time name="total">   10.14   10.19</time>
   <energy>
    <i name="e_fr_energy">   -479.74781641 </i>
    <i name="e_wo_entrp">   -479.75867495 </i>
    <i name="e_0_energy">   -479.75143592 </i>
   </energy>
  </scstep>
  <scstep>
   <time name="dav">    9.61    9.63</time>
   <time name="total">   10.14   10.23</time>
   <energy>
    <i name="e_fr_energy">   -479.74781638 </i>
    <i name="e_wo_entrp">   -479.75867491 </i>
    <i name="e_0_energy">   -479.75143589 </i>
   </energy>
  </scstep>
  <scstep>
   <time name="dav">    9.42    9.43</time>
   <time name="total">    9.78    9.80</time>
   <energy>
    <i name="e_fr_energy">   -479.74781639 </i>
    <i name="e_wo_entrp">   -479.75867493 </i>
    <i name="e_0_energy">   -479.75143591 </i>
   </energy>
  </scstep>
  <scstep>
   <time name="dav">    9.42    9.44</time>
   <time name="total">    9.51    9.57</time>
   <energy>
    <i name="alphaZ">    354.85177120 </i>
    <i name="ewald">  -9075.77840965 </i>
    <i name="hartreedc">  -1028.09393016 </i>
    <i name="XCdc">    179.36278515 </i>
    <i name="pawpsdc">  33186.36466847 </i>
    <i name="pawaedc"> -32647.34891298 </i>
    <i name="eentropy">      0.01085855 </i>
    <i name="bandstr">    544.70830984 </i>
    <i name="atom">   8006.17504320 </i>
    <i name="e_fr_energy">   -479.74781639 </i>
    <i name="e_wo_entrp">   -479.75867493 </i>
    <i name="e_0_energy">   -479.75143590 </i>
   </energy>
  </scstep>
  <structure>
   <crystal>
    <varray name="basis" >
     <v>       8.74331558       0.00000000       0.00000000 </v>
     <v>       0.00000000       8.74331558       0.00000000 </v>
     <v>       0.00000000       0.00000000       8.74331558 </v>
    </varray>
    <i name="volume">    668.38771987 </i>
    <varray name="rec_basis" >
     <v>       0.11437309       0.00000000       0.00000000 </v>
     <v>       0.00000000       0.11437309       0.00000000 </v>
     <v>       0.00000000       0.00000000       0.11437309 </v>
    </varray>
   </crystal>
   <varray name="positions" >
    <v>       0.12838532       0.12548232       0.13044679 </v>
    <v>       0.12140474       0.37931031       0.37183127 </v>
    <v>       0.37613996       0.12318047       0.37580393 </v>
    <v>       0.37881128       0.37372799       0.12656532 </v>
    <v>       0.12367759       0.12952094       0.63065627 </v>
    <v>       0.12804766       0.37332625       0.88020493 </v>
    <v>       0.37848064       0.12317639       0.87605500 </v>
    <v>       0.38031660       0.37794139       0.62382402 </v>
    <v>       0.12053229       0.62175191       0.12987095 </v>
    <v>       0.12762033       0.87795573       0.36999410 </v>
    <v>       0.37380641       0.62683535       0.36923141 </v>
    <v>       0.36859695       0.87429189       0.12531983 </v>
    <v>       0.12179852       0.62465501       0.62360919 </v>
    <v>       0.12518393       0.86678612       0.87032064 </v>
    <v>       0.38102353       0.61926895       0.87265776 </v>
    <v>       0.37439089       0.88170219       0.62645253 </v>
    <v>       0.63212916       0.12156093       0.11972015 </v>
    <v>       0.62567122       0.36887206       0.36655079 </v>
    <v>       0.87551585       0.12315161       0.37939825 </v>
    <v>       0.87611058       0.38000418       0.12319264 </v>
    <v>       0.62370908       0.12338274       0.63007802 </v>
    <v>       0.62764529       0.38055939       0.87987267 </v>
    <v>       0.87375954       0.12468669       0.87579595 </v>
    <v>       0.87700963       0.37552977       0.62679993 </v>
    <v>       0.62140034       0.62549162       0.12799836 </v>
    <v>       0.62632075       0.87045315       0.37421238 </v>
    <v>       0.87543469       0.62161295       0.37245362 </v>
    <v>       0.86842268       0.86743646       0.12209997 </v>
    <v>       0.61854540       0.61256794       0.62596693 </v>
    <v>       0.62646846       0.87333975       0.87843618 </v>
    <v>       0.87353278       0.62495150       0.87783396 </v>
    <v>       0.87582164       0.87617957       0.62451082 </v>
    <v>       0.99863592       0.99810813       0.99602998 </v>
    <v>       0.00148538       0.24989734       0.25197825 </v>
    <v>       0.24341411       0.00154762       0.24516719 </v>
    <v>       0.24814113       0.24725994       0.99602291 </v>
    <v>       0.00329338       0.99957999       0.50238811 </v>
    <v>       0.99655596       0.24639797       0.75337430 </v>
    <v>       0.25514210       0.00104714       0.75018170 </v>
    <v>       0.25970674       0.25010761       0.49482425 </v>
    <v>       0.00322023       0.50228808       0.00072700 </v>
    <v>       0.99692391       0.74910682       0.24952313 </v>
    <v>       0.24353310       0.50047322       0.25237663 </v>
    <v>       0.25664908       0.75067193       0.99245071 </v>
    <v>       0.00036531       0.49767320       0.50043321 </v>
    <v>       0.00062306       0.75132990       0.74661783 </v>
    <v>       0.25579987       0.50114193       0.75654391 </v>
    <v>       0.24841796       0.75030799       0.49858189 </v>
    <v>       0.50405365       0.99430154       0.00193658 </v>
    <v>       0.50032200       0.24546374       0.25305863 </v>
    <v>       0.76050173       0.99768713       0.24672477 </v>
    <v>       0.74887306       0.24852508       0.99502747 </v>
    <v>       0.49884358       0.00337936       0.49487075 </v>
    <v>       0.50106997       0.24474206       0.74563697 </v>
    <v>       0.74646297       0.00086860       0.75358639 </v>
    <v>       0.75315850       0.25315181       0.49625899 </v>
    <v>       0.50312779       0.50232333       0.00111115 </v>
    <v>       0.50550701       0.74958654       0.25127785 </v>
    <v>       0.75604616       0.49842296       0.25365806 </v>
    <v>       0.75091483       0.74374256       0.99804710 </v>
    <v>       0.49829362       0.49062306       0.49772667 </v>
    <v>       0.50224414       0.75327455       0.74974499 </v>
    <v>       0.75169941       0.49947664       0.74969111 </v>
    <v>       0.75186913       0.74920916       0.50297176 </v>
   </varray>
  </structure>
  <varray name="forces" >
   <v>      -1.49549688       0.24276691      -1.79831812 </v>
   <v>       0.82427658      -1.33914147       1.07635417 </v>
   <v>      -0.32021461      -0.10929441      -0.98753332 </v>
   <v>      -0.94959763      -0.10544783      -0.14395449 </v>
   <v>       0.95157674      -0.66006036      -0.99506730 </v>
   <v>      -0.68978730       0.38048096      -1.11396863 </v>
   <v>      -0.16252944      -0.10365629      -0.01610905 </v>
   <v>      -1.13236127      -1.33116625       0.44896965 </v>
   <v>       0.93623130       1.10201768      -1.21920050 </v>
   <v>      -1.05849480      -0.48725223       0.92135050 </v>
   <v>       0.15484337      -0.59174610       1.27059932 </v>
   <v>       1.42200007       0.18529149      -0.16953409 </v>
   <v>       0.87734286      -0.18677129       0.35436574 </v>
   <v>       0.43843395       1.63987599       0.41779325 </v>
   <v>      -0.19053498       1.60929178       0.50703566 </v>
   <v>       0.45314892      -1.21823219      -0.82170643 </v>
   <v>      -0.73188458      -0.12514243       1.14305953 </v>
   <v>       0.41945754       0.64123718       1.56174989 </v>
   <v>       0.61069819       0.10094889      -0.72257431 </v>
   <v>       0.07006673      -1.44717587       0.07008545 </v>
   <v>       0.68229171       0.12217246      -1.65595572 </v>
   <v>      -0.25235276      -1.31293047      -1.25425919 </v>
   <v>       0.11241273      -0.34818590      -0.17466935 </v>
   <v>      -0.25830434      -0.30027718      -0.22563209 </v>
   <v>       1.28760845      -0.25591867      -0.34366505 </v>
   <v>       0.43890878       1.26592448       0.34921541 </v>
   <v>       0.16038589       0.70704835       1.35859598 </v>
   <v>       1.77270999       0.83555502      -0.01264417 </v>
   <v>       1.17249644       2.01147680      -0.36984042 </v>
   <v>       0.10361657      -0.44759008      -0.68955569 </v>
   <v>       0.86690062      -0.17408133      -1.22132016 </v>
   <v>      -0.35745925       0.00787758       0.39084449 </v>
   <v>       0.43300503      -0.60081253       0.82362920 </v>
   <v>      -0.63936494       0.37121497      -0.47776529 </v>
   <v>       1.68482109      -0.74539069       0.80326110 </v>
   <v>       1.39378500       0.27785978       1.42212516 </v>
   <v>       0.07295981       0.35183618      -0.09267195 </v>
   <v>       0.84919286       1.11574202      -0.30708847 </v>
   <v>      -1.13702871       0.22090527       0.26732174 </v>
   <v>      -2.14418496       0.70662483       1.28324230 </v>
   <v>      -0.43874975      -0.33034636       0.12887903 </v>
   <v>       0.51304229      -0.01337402      -0.19922544 </v>
   <v>       1.48667773       0.06169887      -1.02455617 </v>
   <v>      -1.16495433      -1.01677752       1.40338237 </v>
   <v>      -0.00028398       0.35036841       0.08660637 </v>
   <v>      -0.61525673      -0.78135424       0.34667525 </v>
   <v>      -1.12243590      -0.71918200      -1.53194022 </v>
   <v>       0.57441944       0.06817828      -0.05110721 </v>
   <v>      -0.74310919       0.76815069       0.30708359 </v>
   <v>       0.32030999       0.03379840      -2.02251799 </v>
   <v>      -1.76903173       0.12397576       0.51742851 </v>
   <v>       0.25936683       1.07399825       1.22026093 </v>
   <v>       0.90354876      -1.22054275       1.02145393 </v>
   <v>      -0.05340535       1.53394857       1.50896610 </v>
   <v>       0.59700466      -0.50583834      -0.53599719 </v>
   <v>      -0.58775609      -0.70701976       0.96201539 </v>
   <v>      -0.23692065      -0.90755036       0.78199201 </v>
   <v>      -1.51168974       0.04116806      -0.32964317 </v>
   <v>      -1.38061044      -0.00006541      -1.40510002 </v>
   <v>      -0.91505118       0.19668066       0.63311086 </v>
   <v>       0.47616639       1.68477070      -1.06205326 </v>
   <v>      -0.17305775      -0.85352513      -0.56773761 </v>
   <v>      -0.35740658      -0.07691136       0.44702442 </v>
   <v>      -0.73039149      -0.81012446      -0.29156522 </v>
  </varray>
  <varray name="stress" >
   <v>       8.58933612      -3.87404719       0.17575624 </v>
   <v>      -3.87404721       9.54272972       5.91473403 </v>
   <v>       0.17575625       5.91473408       8.51155269 </v>
  </varray>
  <energy>
   <i name="e_fr_energy">   -479.74781639 </i>
   <i name="e_wo_entrp">   -479.75867493 </i>
   <i name="e_0_energy">   -479.75143590 </i>
  </energy>
  <time name="totalsc">  346.70  348.79</time>
  <eigenvalues>
   <array>
    <dimension dim="1">band</dimension>
    <dimension dim="2">kpoint</dimension>
    <dimension dim="3">spin</dimension>
    <field>eigene</field>
    <field>occ</field>
    <set>
     <set comment="spin 1">
      <set comment="kpoint 1">
       <r>   -7.3576    1.0000 </r>
       <r>   -5.9132    1.0000 </r>
       <r>   -5.8616    1.0000 </r>
       <r>   -5.7950    1.0000 </r>
       <r>   -5.7571    1.0000 </r>
       <r>   -5.7129    1.0000 </r>
       <r>   -5.6406    1.0000 </r>
       <r>   -4.5604    1.0000 </r>
       <r>   -4.5393    1.0000 </r>
       <r>   -4.4532    1.0000 </r>
       <r>   -4.4490    1.0000 </r>
       <r>   -4.4307    1.0000 </r>
       <r>   -4.3928    1.0000 </r>
       <r>   -4.3329    1.0000 </r>
       <r>   -4.2660    1.0000 </r>
       <r>   -4.2487    1.0000 </r>
       <r>   -4.2130    1.0000 </r>
       <r>   -4.2015    1.0000 </r>
       <r>   -4.1627    1.0000 </r>
       <r>   -3.9332    1.0000 </r>
       <r>   -3.8490    1.0000 </r>
       <r>   -3.7094    1.0000 </r>
       <r>   -3.6867    1.0000 </r>
       <r>   -2.4567    1.0000 </r>
       <r>   -2.3799    1.0000 </r>
       <r>   -2.3112    1.0000 </r>
       <r>   -2.2722    1.0000 </r>
       <r>   -2.1826    1.0000 </r>
       <r>   -2.1321    1.0000 </r>
       <r>   -2.0962    1.0000 </r>
       <r>   -2.0804    1.0000 </r>
       <r>   -1.9426    1.0000 </r>
       <r>   -0.5979    1.0000 </r>
       <r>   -0.5470    1.0000 </r>
       <r>   -0.4639    1.0000 </r>
       <r>   -0.3934    1.0000 </r>
       <r>    0.2221    1.0000 </r>
       <r>    0.2330    1.0000 </r>
       <r>    0.2384    1.0000 </r>
       <r>    0.9222    1.0000 </r>
       <r>    0.9327    1.0000 </r>
       <r>    0.9535    1.0000 </r>
       <r>    0.9793    1.0000 </r>
       <r>    1.0181    1.0000 </r>
       <r>    1.0350    1.0000 </r>
       <r>    1.8903    1.0000 </r>
       <r>    1.9289    1.0000 </r>
       <r>    1.9449    1.0000 </r>
       <r>    1.9861    1.0000 </r>
       <r>    2.0112    1.0000 </r>
       <r>    2.0556    1.0000 </r>
       <r>    2.0812    1.0000 </r>
       <r>    2.1146    1.0000 </r>
       <r>    2.1414    1.0000 </r>
       <r>    2.1739    1.0000 </r>
       <r>    2.2186    1.0000 </r>
       <r>    2.2601    1.0000 </r>
       <r>    2.9304    1.0000 </r>
       <r>    2.9961    1.0000 </r>
       <r>    3.0256    1.0000 </r>
       <r>    3.0380    1.0000 </r>
       <r>    3.0898    1.0000 </r>
       <r>    3.1159    1.0000 </r>
       <r>    3.2608    1.0000 </r>
       <r>    3.2642    1.0000 </r>
       <r>    3.2954    1.0000 </r>
       <r>    3.3394    1.0000 </r>
       <r>    3.3604    1.0000 </r>
       <r>    3.3971    1.0000 </r>
       <r>    3.5424    1.0000 </r>
       <r>    3.5834    1.0000 </r>
       <r>    3.5947    1.0000 </r>
       <r>    3.6478    1.0000 </r>
       <r>    3.6547    1.0000 </r>
       <r>    3.6693    1.0000 </r>
       <r>    3.6930    1.0000 </r>
       <r>    3.7323    1.0000 </r>
       <r>    3.7840    1.0000 </r>
       <r>    3.8062    1.0000 </r>
       <r>    3.8316    1.0000 </r>
       <r>    3.8507    1.0000 </r>
       <r>    4.5390    1.0000 </r>
       <r>    4.5753    1.0000 </r>
       <r>    4.6333    1.0000 </r>
       <r>    4.6527    1.0000 </r>
       <r>    4.7038    1.0000 </r>
       <r>    4.7697    1.0000 </r>
       <r>    4.8038    1.0000 </r>
       <r>    4.8144    1.0000 </r>
       <r>    4.8412    1.0000 </r>
       <r>    4.8480    1.0000 </r>
       <r>    4.8686    1.0000 </r>
       <r>    4.9457    1.0000 </r>
       <r>    5.8666    1.0000 </r>
       <r>    5.9254    1.0000 </r>
       <r>    5.9928    1.0000 </r>
       <r>    5.9989    1.0000 </r>
       <r>    6.0023    1.0000 </r>
       <r>    6.0593    1.0000 </r>
       <r>    6.0689    1.0000 </r>
       <r>    6.0877    1.0000 </r>
       <r>    6.1146    1.0000 </r>
       <r>    6.1207    1.0000 </r>
       <r>    6.2298    1.0000 </r>
       <r>    6.2823    1.0000 </r>
       <r>    6.6358    1.0000 </r>
       <r>    6.6391    1.0000 </r>
       <r>    6.7253    1.0000 </r>
       <r>    6.7404    1.0000 </r>
       <r>    6.7670    1.0000 </r>
       <r>    6.7881    1.0000 </r>
       <r>    6.7968    1.0000 </r>
       <r>    6.8214    1.0000 </r>
       <r>    6.8283    1.0000 </r>
       <r>    6.8711    1.0000 </r>
       <r>    6.9070    1.0000 </r>
       <r>    6.9256    1.0000 </r>
       <r>    6.9442    1.0000 </r>
       <r>    6.9583    1.0000 </r>
       <r>    7.0049    1.0000 </r>
       <r>    7.0218    1.0000 </r>
       <r>    7.0634    1.0000 </r>
       <r>    7.1211    1.0000 </r>
       <r>    7.1653    1.0000 </r>
       <r>    7.2490    1.0000 </r>
       <r>    7.9856    1.0287 </r>
       <r>    8.0526    0.9614 </r>
       <r>    8.1204    0.7874 </r>
       <r>    9.2351   -0.0000 </r>
       <r>    9.3456   -0.0000 </r>
       <r>    9.4693   -0.0000 </r>
       <r>   11.8265   -0.0000 </r>
       <r>   11.9265   -0.0000 </r>
       <r>   11.9721   -0.0000 </r>
       <r>   11.9975   -0.0000 </r>
       <r>   12.0433   -0.0000 </r>
       <r>   12.0871   -0.0000 </r>
       <r>   12.1978   -0.0000 </r>
       <r>   12.2509   -0.0000 </r>
       <r>   12.2866   -0.0000 </r>
       <r>   12.9788   -0.0000 </r>
       <r>   13.0196   -0.0000 </r>
       <r>   13.0805   -0.0000 </r>
       <r>   13.1207   -0.0000 </r>
       <r>   13.1325   -0.0000 </r>
       <r>   13.2007   -0.0000 </r>
       <r>   13.2224   -0.0000 </r>
       <r>   13.2722   -0.0000 </r>
       <r>   13.2916   -0.0000 </r>
       <r>   13.3175   -0.0000 </r>
       <r>   13.3495   -0.0000 </r>
       <r>   13.3604   -0.0000 </r>
       <r>   13.4009   -0.0000 </r>
       <r>   13.4198   -0.0000 </r>
       <r>   13.4667   -0.0000 </r>
       <r>   13.4867   -0.0000 </r>
       <r>   13.5065   -0.0000 </r>
       <r>   13.5375   -0.0000 </r>
       <r>   13.6016   -0.0000 </r>
       <r>   13.6395   -0.0000 </r>
       <r>   13.6936    0.0000 </r>
       <r>   13.7113    0.0000 </r>
       <r>   14.0508    0.0000 </r>
       <r>   14.0892    0.0000 </r>
       <r>   14.1865    0.0000 </r>
       <r>   14.2584    0.0000 </r>
       <r>   14.2943    0.0000 </r>
       <r>   14.3619    0.0000 </r>
      </set>
      <set comment="kpoint 2">
       <r>   -7.1797    1.0000 </r>
       <r>   -6.6481    1.0000 </r>
       <r>   -5.7474    1.0000 </r>
       <r>   -5.6524    1.0000 </r>
       <r>   -5.6034    1.0000 </r>
       <r>   -5.4918    1.0000 </r>
       <r>   -5.2286    1.0000 </r>
       <r>   -5.1417    1.0000 </r>
       <r>   -5.0967    1.0000 </r>
       <r>   -4.9797    1.0000 </r>
       <r>   -4.6406    1.0000 </r>
       <r>   -4.3439    1.0000 </r>
       <r>   -4.2822    1.0000 </r>
       <r>   -4.2100    1.0000 </r>
       <r>   -4.1435    1.0000 </r>
       <r>   -4.1032    1.0000 </r>
       <r>   -4.0153    1.0000 </r>
       <r>   -3.9318    1.0000 </r>
       <r>   -3.8726    1.0000 </r>
       <r>   -3.5192    1.0000 </r>
       <r>   -3.4150    1.0000 </r>
       <r>   -3.3872    1.0000 </r>
       <r>   -3.2568    1.0000 </r>
       <r>   -3.2063    1.0000 </r>
       <r>   -2.6407    1.0000 </r>
       <r>   -2.5468    1.0000 </r>
       <r>   -2.4920    1.0000 </r>
       <r>   -2.4393    1.0000 </r>
       <r>   -2.2923    1.0000 </r>
       <r>   -2.2692    1.0000 </r>
       <r>   -2.1586    1.0000 </r>
       <r>   -2.1401    1.0000 </r>
       <r>   -0.1375    1.0000 </r>
       <r>   -0.1054    1.0000 </r>
       <r>   -0.0071    1.0000 </r>
       <r>    0.0662    1.0000 </r>
       <r>    0.3615    1.0000 </r>
       <r>    0.3812    1.0000 </r>
       <r>    0.6923    1.0000 </r>
       <r>    0.7054    1.0000 </r>
       <r>    0.9551    1.0000 </r>
       <r>    0.9662    1.0000 </r>
       <r>    1.0095    1.0000 </r>
       <r>    1.0262    1.0000 </r>
       <r>    1.0713    1.0000 </r>
       <r>    1.1074    1.0000 </r>
       <r>    1.1661    1.0000 </r>
       <r>    1.2181    1.0000 </r>
       <r>    1.2874    1.0000 </r>
       <r>    1.3239    1.0000 </r>
       <r>    1.4067    1.0000 </r>
       <r>    1.4342    1.0000 </r>
       <r>    1.4917    1.0000 </r>
       <r>    2.6134    1.0000 </r>
       <r>    2.6470    1.0000 </r>
       <r>    2.6959    1.0000 </r>
       <r>    2.7282    1.0000 </r>
       <r>    2.8582    1.0000 </r>
       <r>    2.8712    1.0000 </r>
       <r>    2.9159    1.0000 </r>
       <r>    2.9555    1.0000 </r>
       <r>    2.9893    1.0000 </r>
       <r>    3.0290    1.0000 </r>
       <r>    3.0621    1.0000 </r>
       <r>    3.0921    1.0000 </r>
       <r>    3.1582    1.0000 </r>
       <r>    3.5112    1.0000 </r>
       <r>    3.5258    1.0000 </r>
       <r>    3.6212    1.0000 </r>
       <r>    3.6524    1.0000 </r>
       <r>    3.9432    1.0000 </r>
       <r>    3.9837    1.0000 </r>
       <r>    4.0293    1.0000 </r>
       <r>    4.1231    1.0000 </r>
       <r>    4.3012    1.0000 </r>
       <r>    4.3226    1.0000 </r>
       <r>    4.3523    1.0000 </r>
       <r>    4.3644    1.0000 </r>
       <r>    4.3919    1.0000 </r>
       <r>    4.4212    1.0000 </r>
       <r>    4.4442    1.0000 </r>
       <r>    4.4801    1.0000 </r>
       <r>    4.6158    1.0000 </r>
       <r>    4.6512    1.0000 </r>
       <r>    4.6689    1.0000 </r>
       <r>    4.7327    1.0000 </r>
       <r>    4.7584    1.0000 </r>
       <r>    4.7743    1.0000 </r>
       <r>    4.8801    1.0000 </r>
       <r>    4.9387    1.0000 </r>
       <r>    4.9686    1.0000 </r>
       <r>    5.0262    1.0000 </r>
       <r>    5.3704    1.0000 </r>
       <r>    5.4236    1.0000 </r>
       <r>    5.4945    1.0000 </r>
       <r>    5.5750    1.0000 </r>
       <r>    5.6068    1.0000 </r>
       <r>    5.7060    1.0000 </r>
       <r>    5.8415    1.0000 </r>
       <r>    5.8545    1.0000 </r>
       <r>    5.8967    1.0000 </r>
       <r>    5.9735    1.0000 </r>
       <r>    6.1416    1.0000 </r>
       <r>    6.1769    1.0000 </r>
       <r>    6.2538    1.0000 </r>
       <r>    6.3292    1.0000 </r>
       <r>    6.3662    1.0000 </r>
       <r>    6.4269    1.0000 </r>
       <r>    6.4642    1.0000 </r>
       <r>    6.5148    1.0000 </r>
       <r>    6.5977    1.0000 </r>
       <r>    6.7120    1.0000 </r>
       <r>    6.7488    1.0000 </r>
       <r>    6.7676    1.0000 </r>
       <r>    6.8233    1.0000 </r>
       <r>    6.8443    1.0000 </r>
       <r>    6.8642    1.0000 </r>
       <r>    6.8868    1.0000 </r>
       <r>    6.9182    1.0000 </r>
       <r>    6.9567    1.0000 </r>
       <r>    6.9992    1.0000 </r>
       <r>    7.0482    1.0000 </r>
       <r>    7.0666    1.0000 </r>
       <r>    7.1392    1.0000 </r>
       <r>    7.1822    1.0000 </r>
       <r>    7.5118    1.0000 </r>
       <r>    7.6908    1.0011 </r>
       <r>    7.7692    1.0053 </r>
       <r>    9.6478   -0.0000 </r>
       <r>   10.1594   -0.0000 </r>
       <r>   10.2331   -0.0000 </r>
       <r>   10.6023   -0.0000 </r>
       <r>   11.8847   -0.0000 </r>
       <r>   11.9683   -0.0000 </r>
       <r>   12.4121   -0.0000 </r>
       <r>   12.4785   -0.0000 </r>
       <r>   12.5796   -0.0000 </r>
       <r>   12.6418   -0.0000 </r>
       <r>   12.7015   -0.0000 </r>
       <r>   12.8422   -0.0000 </r>
       <r>   12.9001   -0.0000 </r>
       <r>   12.9319   -0.0000 </r>
       <r>   12.9555   -0.0000 </r>
       <r>   12.9726   -0.0000 </r>
       <r>   13.0085   -0.0000 </r>
       <r>   13.0345   -0.0000 </r>
       <r>   13.0877   -0.0000 </r>
       <r>   13.1445   -0.0000 </r>
       <r>   13.1703   -0.0000 </r>
       <r>   13.2148   -0.0000 </r>
       <r>   13.4402   -0.0000 </r>
       <r>   13.5520   -0.0000 </r>
       <r>   13.5736   -0.0000 </r>
       <r>   13.6127   -0.0000 </r>
       <r>   13.6532    0.0000 </r>
       <r>   13.6645    0.0000 </r>
       <r>   13.6958    0.0000 </r>
       <r>   13.7186    0.0000 </r>
       <r>   13.7371    0.0000 </r>
       <r>   13.8656    0.0000 </r>
       <r>   13.9554    0.0000 </r>
       <r>   14.0279    0.0000 </r>
       <r>   14.0966    0.0000 </r>
       <r>   14.4440    0.0000 </r>
       <r>   14.6922    0.0000 </r>
       <r>   14.7425    0.0000 </r>
       <r>   14.8001    0.0000 </r>
       <r>   14.8292    0.0000 </r>
      </set>
      <set comment="kpoint 3">
       <r>   -7.1807    1.0000 </r>
       <r>   -6.6452    1.0000 </r>
       <r>   -5.7238    1.0000 </r>
       <r>   -5.6902    1.0000 </r>
       <r>   -5.5800    1.0000 </r>
       <r>   -5.5172    1.0000 </r>
       <r>   -5.2093    1.0000 </r>
       <r>   -5.1463    1.0000 </r>
       <r>   -5.0667    1.0000 </r>
       <r>   -5.0099    1.0000 </r>
       <r>   -4.6472    1.0000 </r>
       <r>   -4.3711    1.0000 </r>
       <r>   -4.2910    1.0000 </r>
       <r>   -4.2090    1.0000 </r>
       <r>   -4.1333    1.0000 </r>
       <r>   -4.0880    1.0000 </r>
       <r>   -4.0105    1.0000 </r>
       <r>   -3.9175    1.0000 </r>
       <r>   -3.8441    1.0000 </r>
       <r>   -3.5062    1.0000 </r>
       <r>   -3.4315    1.0000 </r>
       <r>   -3.3706    1.0000 </r>
       <r>   -3.2983    1.0000 </r>
       <r>   -3.2165    1.0000 </r>
       <r>   -2.6109    1.0000 </r>
       <r>   -2.5337    1.0000 </r>
       <r>   -2.4972    1.0000 </r>
       <r>   -2.4441    1.0000 </r>
       <r>   -2.3537    1.0000 </r>
       <r>   -2.2938    1.0000 </r>
       <r>   -2.1503    1.0000 </r>
       <r>   -2.0906    1.0000 </r>
       <r>   -0.1363    1.0000 </r>
       <r>   -0.0998    1.0000 </r>
       <r>   -0.0182    1.0000 </r>
       <r>    0.0751    1.0000 </r>
       <r>    0.3662    1.0000 </r>
       <r>    0.3825    1.0000 </r>
       <r>    0.6778    1.0000 </r>
       <r>    0.7291    1.0000 </r>
       <r>    0.9636    1.0000 </r>
       <r>    0.9847    1.0000 </r>
       <r>    1.0062    1.0000 </r>
       <r>    1.0255    1.0000 </r>
       <r>    1.0488    1.0000 </r>
       <r>    1.1026    1.0000 </r>
       <r>    1.1443    1.0000 </r>
       <r>    1.2025    1.0000 </r>
       <r>    1.2674    1.0000 </r>
       <r>    1.3429    1.0000 </r>
       <r>    1.4002    1.0000 </r>
       <r>    1.4574    1.0000 </r>
       <r>    1.5008    1.0000 </r>
       <r>    2.5983    1.0000 </r>
       <r>    2.6495    1.0000 </r>
       <r>    2.6970    1.0000 </r>
       <r>    2.7236    1.0000 </r>
       <r>    2.8537    1.0000 </r>
       <r>    2.9136    1.0000 </r>
       <r>    2.9482    1.0000 </r>
       <r>    2.9644    1.0000 </r>
       <r>    3.0018    1.0000 </r>
       <r>    3.0235    1.0000 </r>
       <r>    3.0452    1.0000 </r>
       <r>    3.0760    1.0000 </r>
       <r>    3.1257    1.0000 </r>
       <r>    3.4932    1.0000 </r>
       <r>    3.5113    1.0000 </r>
       <r>    3.6292    1.0000 </r>
       <r>    3.6561    1.0000 </r>
       <r>    3.9604    1.0000 </r>
       <r>    3.9891    1.0000 </r>
       <r>    4.0439    1.0000 </r>
       <r>    4.1053    1.0000 </r>
       <r>    4.2999    1.0000 </r>
       <r>    4.3179    1.0000 </r>
       <r>    4.3504    1.0000 </r>
       <r>    4.3815    1.0000 </r>
       <r>    4.4052    1.0000 </r>
       <r>    4.4286    1.0000 </r>
       <r>    4.4580    1.0000 </r>
       <r>    4.4889    1.0000 </r>
       <r>    4.5615    1.0000 </r>
       <r>    4.5964    1.0000 </r>
       <r>    4.7040    1.0000 </r>
       <r>    4.7289    1.0000 </r>
       <r>    4.7643    1.0000 </r>
       <r>    4.7817    1.0000 </r>
       <r>    4.8716    1.0000 </r>
       <r>    4.9350    1.0000 </r>
       <r>    4.9902    1.0000 </r>
       <r>    5.0126    1.0000 </r>
       <r>    5.3786    1.0000 </r>
       <r>    5.4037    1.0000 </r>
       <r>    5.5038    1.0000 </r>
       <r>    5.5755    1.0000 </r>
       <r>    5.6189    1.0000 </r>
       <r>    5.7202    1.0000 </r>
       <r>    5.8234    1.0000 </r>
       <r>    5.8747    1.0000 </r>
       <r>    5.8988    1.0000 </r>
       <r>    5.9758    1.0000 </r>
       <r>    6.1356    1.0000 </r>
       <r>    6.1982    1.0000 </r>
       <r>    6.2236    1.0000 </r>
       <r>    6.3121    1.0000 </r>
       <r>    6.3512    1.0000 </r>
       <r>    6.4229    1.0000 </r>
       <r>    6.4619    1.0000 </r>
       <r>    6.5319    1.0000 </r>
       <r>    6.5706    1.0000 </r>
       <r>    6.7075    1.0000 </r>
       <r>    6.7616    1.0000 </r>
       <r>    6.7918    1.0000 </r>
       <r>    6.8120    1.0000 </r>
       <r>    6.8465    1.0000 </r>
       <r>    6.8758    1.0000 </r>
       <r>    6.9244    1.0000 </r>
       <r>    6.9461    1.0000 </r>
       <r>    6.9680    1.0000 </r>
       <r>    6.9926    1.0000 </r>
       <r>    7.0275    1.0000 </r>
       <r>    7.0571    1.0000 </r>
       <r>    7.1245    1.0000 </r>
       <r>    7.1719    1.0000 </r>
       <r>    7.4998    1.0000 </r>
       <r>    7.7277    1.0024 </r>
       <r>    7.7446    1.0034 </r>
       <r>    9.6440   -0.0000 </r>
       <r>   10.1771   -0.0000 </r>
       <r>   10.2048   -0.0000 </r>
       <r>   10.6081   -0.0000 </r>
       <r>   11.9282   -0.0000 </r>
       <r>   11.9471   -0.0000 </r>
       <r>   12.4229   -0.0000 </r>
       <r>   12.5060   -0.0000 </r>
       <r>   12.5859   -0.0000 </r>
       <r>   12.6142   -0.0000 </r>
       <r>   12.6340   -0.0000 </r>
       <r>   12.8229   -0.0000 </r>
       <r>   12.8619   -0.0000 </r>
       <r>   12.9519   -0.0000 </r>
       <r>   12.9569   -0.0000 </r>
       <r>   12.9935   -0.0000 </r>
       <r>   13.0402   -0.0000 </r>
       <r>   13.0686   -0.0000 </r>
       <r>   13.0744   -0.0000 </r>
       <r>   13.1062   -0.0000 </r>
       <r>   13.1968   -0.0000 </r>
       <r>   13.2597   -0.0000 </r>
       <r>   13.4353   -0.0000 </r>
       <r>   13.5445   -0.0000 </r>
       <r>   13.5621   -0.0000 </r>
       <r>   13.5870   -0.0000 </r>
       <r>   13.6263   -0.0000 </r>
       <r>   13.6540    0.0000 </r>
       <r>   13.6881    0.0000 </r>
       <r>   13.7187    0.0000 </r>
       <r>   13.7738    0.0000 </r>
       <r>   13.8931    0.0000 </r>
       <r>   13.9839    0.0000 </r>
       <r>   14.0062    0.0000 </r>
       <r>   14.0625    0.0000 </r>
       <r>   14.4489    0.0000 </r>
       <r>   14.6219    0.0000 </r>
       <r>   14.7335    0.0000 </r>
       <r>   14.7926    0.0000 </r>
       <r>   14.8470    0.0000 </r>
      </set>
      <set comment="kpoint 4">
       <r>   -7.1799    1.0000 </r>
       <r>   -6.6513    1.0000 </r>
       <r>   -5.6959    1.0000 </r>
       <r>   -5.6370    1.0000 </r>
       <r>   -5.5965    1.0000 </r>
       <r>   -5.5827    1.0000 </r>
       <r>   -5.1759    1.0000 </r>
       <r>   -5.1213    1.0000 </r>
       <r>   -5.0813    1.0000 </r>
       <r>   -5.0675    1.0000 </r>
       <r>   -4.6323    1.0000 </r>
       <r>   -4.3405    1.0000 </r>
       <r>   -4.2523    1.0000 </r>
       <r>   -4.2420    1.0000 </r>
       <r>   -4.1601    1.0000 </r>
       <r>   -4.1014    1.0000 </r>
       <r>   -4.0046    1.0000 </r>
       <r>   -3.9095    1.0000 </r>
       <r>   -3.8795    1.0000 </r>
       <r>   -3.4577    1.0000 </r>
       <r>   -3.4134    1.0000 </r>
       <r>   -3.3798    1.0000 </r>
       <r>   -3.3549    1.0000 </r>
       <r>   -3.1941    1.0000 </r>
       <r>   -2.5581    1.0000 </r>
       <r>   -2.5238    1.0000 </r>
       <r>   -2.5099    1.0000 </r>
       <r>   -2.4774    1.0000 </r>
       <r>   -2.3515    1.0000 </r>
       <r>   -2.2613    1.0000 </r>
       <r>   -2.2408    1.0000 </r>
       <r>   -2.0407    1.0000 </r>
       <r>   -0.1326    1.0000 </r>
       <r>   -0.0887    1.0000 </r>
       <r>   -0.0108    1.0000 </r>
       <r>    0.0549    1.0000 </r>
       <r>    0.3730    1.0000 </r>
       <r>    0.3768    1.0000 </r>
       <r>    0.6684    1.0000 </r>
       <r>    0.7188    1.0000 </r>
       <r>    0.9399    1.0000 </r>
       <r>    0.9847    1.0000 </r>
       <r>    1.0008    1.0000 </r>
       <r>    1.0386    1.0000 </r>
       <r>    1.0648    1.0000 </r>
       <r>    1.1121    1.0000 </r>
       <r>    1.1632    1.0000 </r>
       <r>    1.1879    1.0000 </r>
       <r>    1.2282    1.0000 </r>
       <r>    1.3771    1.0000 </r>
       <r>    1.4273    1.0000 </r>
       <r>    1.4497    1.0000 </r>
       <r>    1.4907    1.0000 </r>
       <r>    2.6116    1.0000 </r>
       <r>    2.6519    1.0000 </r>
       <r>    2.6668    1.0000 </r>
       <r>    2.7288    1.0000 </r>
       <r>    2.8799    1.0000 </r>
       <r>    2.8954    1.0000 </r>
       <r>    2.9497    1.0000 </r>
       <r>    2.9634    1.0000 </r>
       <r>    2.9876    1.0000 </r>
       <r>    3.0098    1.0000 </r>
       <r>    3.0580    1.0000 </r>
       <r>    3.0835    1.0000 </r>
       <r>    3.1057    1.0000 </r>
       <r>    3.5047    1.0000 </r>
       <r>    3.5153    1.0000 </r>
       <r>    3.6298    1.0000 </r>
       <r>    3.6518    1.0000 </r>
       <r>    3.9592    1.0000 </r>
       <r>    4.0123    1.0000 </r>
       <r>    4.0440    1.0000 </r>
       <r>    4.0573    1.0000 </r>
       <r>    4.3013    1.0000 </r>
       <r>    4.3406    1.0000 </r>
       <r>    4.3606    1.0000 </r>
       <r>    4.3835    1.0000 </r>
       <r>    4.4138    1.0000 </r>
       <r>    4.4330    1.0000 </r>
       <r>    4.4508    1.0000 </r>
       <r>    4.4773    1.0000 </r>
       <r>    4.5910    1.0000 </r>
       <r>    4.6354    1.0000 </r>
       <r>    4.6755    1.0000 </r>
       <r>    4.7003    1.0000 </r>
       <r>    4.7565    1.0000 </r>
       <r>    4.8392    1.0000 </r>
       <r>    4.8651    1.0000 </r>
       <r>    4.8970    1.0000 </r>
       <r>    4.9757    1.0000 </r>
       <r>    5.0097    1.0000 </r>
       <r>    5.3676    1.0000 </r>
       <r>    5.3984    1.0000 </r>
       <r>    5.5528    1.0000 </r>
       <r>    5.5843    1.0000 </r>
       <r>    5.6058    1.0000 </r>
       <r>    5.6743    1.0000 </r>
       <r>    5.8395    1.0000 </r>
       <r>    5.8837    1.0000 </r>
       <r>    5.9106    1.0000 </r>
       <r>    5.9566    1.0000 </r>
       <r>    6.1785    1.0000 </r>
       <r>    6.2205    1.0000 </r>
       <r>    6.2608    1.0000 </r>
       <r>    6.3031    1.0000 </r>
       <r>    6.3459    1.0000 </r>
       <r>    6.4462    1.0000 </r>
       <r>    6.4752    1.0000 </r>
       <r>    6.4944    1.0000 </r>
       <r>    6.5233    1.0000 </r>
       <r>    6.6803    1.0000 </r>
       <r>    6.7118    1.0000 </r>
       <r>    6.7869    1.0000 </r>
       <r>    6.8081    1.0000 </r>
       <r>    6.8420    1.0000 </r>
       <r>    6.8815    1.0000 </r>
       <r>    6.8989    1.0000 </r>
       <r>    6.9475    1.0000 </r>
       <r>    6.9770    1.0000 </r>
       <r>    6.9983    1.0000 </r>
       <r>    7.0440    1.0000 </r>
       <r>    7.0691    1.0000 </r>
       <r>    7.1182    1.0000 </r>
       <r>    7.2180    1.0000 </r>
       <r>    7.5051    1.0000 </r>
       <r>    7.6820    1.0009 </r>
       <r>    7.7737    1.0057 </r>
       <r>    9.6640   -0.0000 </r>
       <r>   10.0955   -0.0000 </r>
       <r>   10.2781   -0.0000 </r>
       <r>   10.6031   -0.0000 </r>
       <r>   11.8541   -0.0000 </r>
       <r>   12.0151   -0.0000 </r>
       <r>   12.4181   -0.0000 </r>
       <r>   12.5201   -0.0000 </r>
       <r>   12.5821   -0.0000 </r>
       <r>   12.6390   -0.0000 </r>
       <r>   12.6723   -0.0000 </r>
       <r>   12.8148   -0.0000 </r>
       <r>   12.8985   -0.0000 </r>
       <r>   12.9319   -0.0000 </r>
       <r>   12.9509   -0.0000 </r>
       <r>   12.9918   -0.0000 </r>
       <r>   13.0221   -0.0000 </r>
       <r>   13.0411   -0.0000 </r>
       <r>   13.0779   -0.0000 </r>
       <r>   13.0879   -0.0000 </r>
       <r>   13.1584   -0.0000 </r>
       <r>   13.2167   -0.0000 </r>
       <r>   13.4726   -0.0000 </r>
       <r>   13.5768   -0.0000 </r>
       <r>   13.5942   -0.0000 </r>
       <r>   13.6171   -0.0000 </r>
       <r>   13.6277   -0.0000 </r>
       <r>   13.6597    0.0000 </r>
       <r>   13.6771    0.0000 </r>
       <r>   13.7167    0.0000 </r>
       <r>   13.7423    0.0000 </r>
       <r>   13.9078    0.0000 </r>
       <r>   13.9684    0.0000 </r>
       <r>   14.0138    0.0000 </r>
       <r>   14.0650    0.0000 </r>
       <r>   14.4285    0.0000 </r>
       <r>   14.6248    0.0000 </r>
       <r>   14.7293    0.0000 </r>
       <r>   14.7687    0.0000 </r>
       <r>   14.8214    0.0000 </r>
      </set>
      <set comment="kpoint 5">
       <r>   -7.0041    1.0000 </r>
       <r>   -6.4929    1.0000 </r>
       <r>   -6.4596    1.0000 </r>
       <r>   -5.9643    1.0000 </r>
       <r>   -5.5357    1.0000 </r>
       <r>   -5.3695    1.0000 </r>
       <r>   -5.0721    1.0000 </r>
       <r>   -5.0436    1.0000 </r>
       <r>   -4.9444    1.0000 </r>
       <r>   -4.8531    1.0000 </r>
       <r>   -4.6516    1.0000 </r>
       <r>   -4.5431    1.0000 </r>
       <r>   -4.4523    1.0000 </r>
       <r>   -4.3894    1.0000 </r>
       <r>   -4.0708    1.0000 </r>
       <r>   -3.9635    1.0000 </r>
       <r>   -3.6218    1.0000 </r>
       <r>   -3.5127    1.0000 </r>
       <r>   -3.4745    1.0000 </r>
       <r>   -3.4362    1.0000 </r>
       <r>   -3.3653    1.0000 </r>
       <r>   -3.2951    1.0000 </r>
       <r>   -3.1615    1.0000 </r>
       <r>   -3.0502    1.0000 </r>
       <r>   -2.9358    1.0000 </r>
       <r>   -2.8183    1.0000 </r>
       <r>   -2.7908    1.0000 </r>
       <r>   -2.6949    1.0000 </r>
       <r>   -2.6109    1.0000 </r>
       <r>   -2.3443    1.0000 </r>
       <r>   -2.2864    1.0000 </r>
       <r>   -2.1942    1.0000 </r>
       <r>   -0.2674    1.0000 </r>
       <r>   -0.1263    1.0000 </r>
       <r>    0.4106    1.0000 </r>
       <r>    0.4639    1.0000 </r>
       <r>    0.5383    1.0000 </r>
       <r>    0.5632    1.0000 </r>
       <r>    0.5822    1.0000 </r>
       <r>    0.6101    1.0000 </r>
       <r>    0.6827    1.0000 </r>
       <r>    0.7121    1.0000 </r>
       <r>    0.8046    1.0000 </r>
       <r>    0.8536    1.0000 </r>
       <r>    0.9138    1.0000 </r>
       <r>    1.0245    1.0000 </r>
       <r>    1.2060    1.0000 </r>
       <r>    1.2133    1.0000 </r>
       <r>    1.2702    1.0000 </r>
       <r>    1.3008    1.0000 </r>
       <r>    1.8892    1.0000 </r>
       <r>    1.9673    1.0000 </r>
       <r>    2.0118    1.0000 </r>
       <r>    2.0621    1.0000 </r>
       <r>    2.1220    1.0000 </r>
       <r>    2.1833    1.0000 </r>
       <r>    2.4030    1.0000 </r>
       <r>    2.5480    1.0000 </r>
       <r>    2.5856    1.0000 </r>
       <r>    2.6903    1.0000 </r>
       <r>    2.7196    1.0000 </r>
       <r>    3.1699    1.0000 </r>
       <r>    3.2293    1.0000 </r>
       <r>    3.2791    1.0000 </r>
       <r>    3.3136    1.0000 </r>
       <r>    3.4199    1.0000 </r>
       <r>    3.5076    1.0000 </r>
       <r>    3.5320    1.0000 </r>
       <r>    3.8791    1.0000 </r>
       <r>    3.9107    1.0000 </r>
       <r>    3.9338    1.0000 </r>
       <r>    3.9814    1.0000 </r>
       <r>    4.0916    1.0000 </r>
       <r>    4.0998    1.0000 </r>
       <r>    4.1405    1.0000 </r>
       <r>    4.2818    1.0000 </r>
       <r>    4.3251    1.0000 </r>
       <r>    4.4553    1.0000 </r>
       <r>    4.4896    1.0000 </r>
       <r>    4.6083    1.0000 </r>
       <r>    4.7269    1.0000 </r>
       <r>    4.8061    1.0000 </r>
       <r>    4.8549    1.0000 </r>
       <r>    4.8850    1.0000 </r>
       <r>    4.9116    1.0000 </r>
       <r>    4.9643    1.0000 </r>
       <r>    4.9768    1.0000 </r>
       <r>    5.0732    1.0000 </r>
       <r>    5.2470    1.0000 </r>
       <r>    5.2506    1.0000 </r>
       <r>    5.3265    1.0000 </r>
       <r>    5.3658    1.0000 </r>
       <r>    5.4161    1.0000 </r>
       <r>    5.4678    1.0000 </r>
       <r>    5.4990    1.0000 </r>
       <r>    5.5236    1.0000 </r>
       <r>    5.5917    1.0000 </r>
       <r>    5.6423    1.0000 </r>
       <r>    5.6623    1.0000 </r>
       <r>    5.7235    1.0000 </r>
       <r>    5.8015    1.0000 </r>
       <r>    5.8209    1.0000 </r>
       <r>    5.9664    1.0000 </r>
       <r>    5.9973    1.0000 </r>
       <r>    6.0649    1.0000 </r>
       <r>    6.0818    1.0000 </r>
       <r>    6.1653    1.0000 </r>
       <r>    6.2287    1.0000 </r>
       <r>    6.3047    1.0000 </r>
       <r>    6.3418    1.0000 </r>
       <r>    6.3573    1.0000 </r>
       <r>    6.4241    1.0000 </r>
       <r>    6.4751    1.0000 </r>
       <r>    6.5254    1.0000 </r>
       <r>    6.5698    1.0000 </r>
       <r>    6.6253    1.0000 </r>
       <r>    6.6725    1.0000 </r>
       <r>    6.7218    1.0000 </r>
       <r>    6.7741    1.0000 </r>
       <r>    6.8501    1.0000 </r>
       <r>    6.8908    1.0000 </r>
       <r>    6.9824    1.0000 </r>
       <r>    7.0244    1.0000 </r>
       <r>    7.3207    1.0000 </r>
       <r>    7.5540    1.0000 </r>
       <r>    7.6124    1.0002 </r>
       <r>    7.6407    1.0003 </r>
       <r>    7.9544    1.0353 </r>
       <r>   10.3659   -0.0000 </r>
       <r>   10.4066   -0.0000 </r>
       <r>   10.5575   -0.0000 </r>
       <r>   11.2768   -0.0000 </r>
       <r>   11.3375   -0.0000 </r>
       <r>   11.6058   -0.0000 </r>
       <r>   11.6498   -0.0000 </r>
       <r>   11.7737   -0.0000 </r>
       <r>   12.1433   -0.0000 </r>
       <r>   12.1832   -0.0000 </r>
       <r>   12.6936   -0.0000 </r>
       <r>   12.8021   -0.0000 </r>
       <r>   12.8355   -0.0000 </r>
       <r>   12.9034   -0.0000 </r>
       <r>   12.9632   -0.0000 </r>
       <r>   13.0513   -0.0000 </r>
       <r>   13.0732   -0.0000 </r>
       <r>   13.1196   -0.0000 </r>
       <r>   13.1833   -0.0000 </r>
       <r>   13.2113   -0.0000 </r>
       <r>   13.2860   -0.0000 </r>
       <r>   13.3398   -0.0000 </r>
       <r>   13.4285   -0.0000 </r>
       <r>   13.5011   -0.0000 </r>
       <r>   13.5799   -0.0000 </r>
       <r>   13.6226   -0.0000 </r>
       <r>   13.6770    0.0000 </r>
       <r>   13.7027    0.0000 </r>
       <r>   13.7650    0.0000 </r>
       <r>   13.7902    0.0000 </r>
       <r>   13.8935    0.0000 </r>
       <r>   13.9208    0.0000 </r>
       <r>   13.9904    0.0000 </r>
       <r>   14.0662    0.0000 </r>
       <r>   14.1290    0.0000 </r>
       <r>   14.6031    0.0000 </r>
       <r>   14.6449    0.0000 </r>
       <r>   14.7731    0.0000 </r>
       <r>   14.8546    0.0000 </r>
       <r>   14.9177    0.0000 </r>
      </set>
      <set comment="kpoint 6">
       <r>   -7.0048    1.0000 </r>
       <r>   -6.5196    1.0000 </r>
       <r>   -6.4295    1.0000 </r>
       <r>   -5.9650    1.0000 </r>
       <r>   -5.5028    1.0000 </r>
       <r>   -5.4040    1.0000 </r>
       <r>   -5.1138    1.0000 </r>
       <r>   -5.0127    1.0000 </r>
       <r>   -4.9245    1.0000 </r>
       <r>   -4.8921    1.0000 </r>
       <r>   -4.5982    1.0000 </r>
       <r>   -4.5399    1.0000 </r>
       <r>   -4.4537    1.0000 </r>
       <r>   -4.3933    1.0000 </r>
       <r>   -4.0722    1.0000 </r>
       <r>   -4.0069    1.0000 </r>
       <r>   -3.5978    1.0000 </r>
       <r>   -3.5433    1.0000 </r>
       <r>   -3.5188    1.0000 </r>
       <r>   -3.4139    1.0000 </r>
       <r>   -3.3060    1.0000 </r>
       <r>   -3.2909    1.0000 </r>
       <r>   -3.1576    1.0000 </r>
       <r>   -3.0878    1.0000 </r>
       <r>   -2.8992    1.0000 </r>
       <r>   -2.8115    1.0000 </r>
       <r>   -2.7775    1.0000 </r>
       <r>   -2.6890    1.0000 </r>
       <r>   -2.6228    1.0000 </r>
       <r>   -2.3852    1.0000 </r>
       <r>   -2.3138    1.0000 </r>
       <r>   -2.1597    1.0000 </r>
       <r>   -0.1954    1.0000 </r>
       <r>   -0.1379    1.0000 </r>
       <r>    0.3966    1.0000 </r>
       <r>    0.4665    1.0000 </r>
       <r>    0.5086    1.0000 </r>
       <r>    0.5498    1.0000 </r>
       <r>    0.5736    1.0000 </r>
       <r>    0.6269    1.0000 </r>
       <r>    0.6857    1.0000 </r>
       <r>    0.7807    1.0000 </r>
       <r>    0.8112    1.0000 </r>
       <r>    0.8265    1.0000 </r>
       <r>    0.8764    1.0000 </r>
       <r>    0.9532    1.0000 </r>
       <r>    1.1240    1.0000 </r>
       <r>    1.2173    1.0000 </r>
       <r>    1.2480    1.0000 </r>
       <r>    1.3396    1.0000 </r>
       <r>    1.9493    1.0000 </r>
       <r>    2.0183    1.0000 </r>
       <r>    2.0511    1.0000 </r>
       <r>    2.0813    1.0000 </r>
[...]
      </set>
     </set>
    </set>
   </array>
  </eigenvalues>
  <separator name="orbital magnetization" >
   <v name="MAGDIPOLOUT">      0.00000000      0.00000000      0.00000000</v>
  </separator>
  <dos>
   <i name="efermi">      8.19343799 </i>
   <total>
    <array>
     <dimension dim="1">gridpoints</dimension>
     <dimension dim="2">spin</dimension>
     <field>energy</field>
     <field>total</field>
     <field>integrated</field>
     <set>
      <set comment="spin 1">
       <r>    -9.3576     0.0000     0.0000 </r>
       <r>    -9.2685     0.0000     0.0000 </r>
       <r>    -9.1794     0.0000     0.0000 </r>
       <r>    -9.0903     0.0000     0.0000 </r>
       <r>    -9.0012    -0.0000    -0.0000 </r>
       <r>    -8.9121    -0.0000    -0.0000 </r>
       <r>    -8.8230    -0.0000    -0.0000 </r>
       <r>    -8.7339    -0.0000    -0.0000 </r>
       <r>    -8.6448    -0.0000    -0.0000 </r>
       <r>    -8.5557    -0.0000    -0.0000 </r>
       <r>    -8.4666    -0.0000    -0.0000 </r>
       <r>    -8.3775    -0.0000    -0.0000 </r>
       <r>    -8.2884    -0.0000    -0.0000 </r>
       <r>    -8.1993    -0.0000    -0.0000 </r>
       <r>    -8.1102    -0.0000    -0.0000 </r>
       <r>    -8.0210    -0.0000    -0.0000 </r>
       <r>    -7.9319    -0.0001    -0.0000 </r>
       <r>    -7.8428    -0.0012    -0.0001 </r>
       <r>    -7.7537    -0.0066    -0.0007 </r>
       <r>    -7.6646    -0.0219    -0.0027 </r>
       <r>    -7.5755    -0.0417    -0.0064 </r>
       <r>    -7.4864    -0.0255    -0.0087 </r>
       <r>    -7.3973     0.1263     0.0026 </r>
       <r>    -7.3082     0.5871     0.0549 </r>
       <r>    -7.2191     1.4908     0.1878 </r>
       <r>    -7.1300     2.7470     0.4325 </r>
       <r>    -7.0409     3.9970     0.7887 </r>
       <r>    -6.9518     4.5931     1.1979 </r>
       <r>    -6.8627     4.1458     1.5673 </r>
       <r>    -6.7736     3.1711     1.8499 </r>
       <r>    -6.6845     2.7908     2.0986 </r>
       <r>    -6.5954     4.1339     2.4669 </r>
       <r>    -6.5063     7.1575     3.1047 </r>
       <r>    -6.4172     9.9088     3.9876 </r>
       <r>    -6.3281    10.1870     4.8953 </r>
       <r>    -6.2390     7.5976     5.5722 </r>
       <r>    -6.1499     3.9723     5.9262 </r>
       <r>    -6.0608     2.2852     6.1298 </r>
       <r>    -5.9717     3.7949     6.4680 </r>
       <r>    -5.8826     7.0236     7.0938 </r>
       <r>    -5.7935    10.0615     7.9903 </r>
       <r>    -5.7044    11.6313     9.0267 </r>
       <r>    -5.6152    11.4138    10.0437 </r>
       <r>    -5.5261    10.4972    10.9790 </r>
       <r>    -5.4370     9.5162    11.8270 </r>
       <r>    -5.3479     8.0640    12.5455 </r>
       <r>    -5.2588     7.0289    13.1718 </r>
       <r>    -5.1697     8.6182    13.9397 </r>
       <r>    -5.0806    12.7543    15.0762 </r>
       <r>    -4.9915    15.5426    16.4611 </r>
       <r>    -4.9024    13.4444    17.6590 </r>
       <r>    -4.8133     7.9571    18.3680 </r>
       <r>    -4.7242     4.4724    18.7665 </r>
       <r>    -4.6351     6.1915    19.3182 </r>
       <r>    -4.5460    11.2456    20.3202 </r>
       <r>    -4.4569    16.3590    21.7779 </r>
       <r>    -4.3678    19.0388    23.4743 </r>
       <r>    -4.2787    17.7543    25.0563 </r>
       <r>    -4.1896    15.0467    26.3970 </r>
       <r>    -4.1005    16.0976    27.8314 </r>
       <r>    -4.0114    20.8553    29.6896 </r>
       <r>    -3.9223    23.0335    31.7420 </r>
       <r>    -3.8332    19.0724    33.4414 </r>
       <r>    -3.7441    13.2536    34.6224 </r>
       <r>    -3.6550    11.8279    35.6763 </r>
       <r>    -3.5659    15.5042    37.0578 </r>
       <r>    -3.4768    19.7994    38.8220 </r>
       <r>    -3.3877    20.6885    40.6654 </r>
       <r>    -3.2986    18.4424    42.3087 </r>
       <r>    -3.2094    16.8160    43.8070 </r>
       <r>    -3.1203    18.0103    45.4118 </r>
       <r>    -3.0312    20.0162    47.1953 </r>
       <r>    -2.9421    21.3706    49.0995 </r>
       <r>    -2.8530    23.1296    51.1605 </r>
       <r>    -2.7639    24.3486    53.3300 </r>
       <r>    -2.6748    22.5498    55.3393 </r>
       <r>    -2.5857    18.0440    56.9471 </r>
       <r>    -2.4966    13.7343    58.1708 </r>
       <r>    -2.4075    12.5024    59.2849 </r>
       <r>    -2.3184    14.2890    60.5581 </r>
       <r>    -2.2293    15.3211    61.9232 </r>
       <r>    -2.1402    12.6847    63.0535 </r>
       <r>    -2.0511     7.5962    63.7303 </r>
       <r>    -1.9620     3.0177    63.9992 </r>
       <r>    -1.8729     0.5351    64.0469 </r>
       <r>    -1.7838    -0.1997    64.0291 </r>
       <r>    -1.6947    -0.2028    64.0111 </r>
       <r>    -1.6056    -0.0907    64.0030 </r>
       <r>    -1.5165    -0.0269    64.0006 </r>
       <r>    -1.4274    -0.0055    64.0001 </r>
       <r>    -1.3383    -0.0008    64.0000 </r>
       <r>    -1.2492    -0.0001    64.0000 </r>
       <r>    -1.1601    -0.0003    64.0000 </r>
       <r>    -1.0710    -0.0021    63.9998 </r>
       <r>    -0.9819    -0.0106    63.9988 </r>
       <r>    -0.8928    -0.0306    63.9961 </r>
       <r>    -0.8036    -0.0322    63.9933 </r>
       <r>    -0.7145     0.0803    64.0004 </r>
       <r>    -0.6254     0.3383    64.0306 </r>
       <r>    -0.5363     0.5256    64.0774 </r>
       <r>    -0.4472     0.5774    64.1288 </r>
       <r>    -0.3581     1.4429    64.2574 </r>
       <r>    -0.2690     4.4610    64.6549 </r>
       <r>    -0.1799     8.6380    65.4246 </r>
       <r>    -0.0908    10.4736    66.3578 </r>
       <r>    -0.0017     8.6946    67.1325 </r>
       <r>     0.0874     6.3715    67.7002 </r>
       <r>     0.1765     6.9206    68.3169 </r>
       <r>     0.2656    11.1289    69.3085 </r>
       <r>     0.3547    17.4789    70.8660 </r>
       <r>     0.4438    22.7601    72.8940 </r>
       <r>     0.5329    24.5152    75.0784 </r>
       <r>     0.6220    24.2424    77.2384 </r>
       <r>     0.7111    25.6847    79.5270 </r>
       <r>     0.8002    29.5314    82.1584 </r>
       <r>     0.8893    31.9796    85.0079 </r>
       <r>     0.9784    30.4648    87.7224 </r>
       <r>     1.0675    28.4247    90.2552 </r>
       <r>     1.1566    30.5444    92.9768 </r>
       <r>     1.2457    34.8588    96.0828 </r>
       <r>     1.3348    34.0848    99.1199 </r>
       <r>     1.4239    25.1630   101.3620 </r>
       <r>     1.5130    12.8325   102.5055 </r>
       <r>     1.6022     3.4345   102.8115 </r>
       <r>     1.6913    -0.4460   102.7718 </r>
       <r>     1.7804     0.7256   102.8364 </r>
       <r>     1.8695     5.9174   103.3637 </r>
       <r>     1.9586    13.5882   104.5744 </r>
       <r>     2.0477    20.4414   106.3958 </r>
       <r>     2.1368    22.5856   108.4083 </r>
       <r>     2.2259    18.8029   110.0837 </r>
       <r>     2.3150    12.0769   111.1598 </r>
       <r>     2.4041     7.4576   111.8243 </r>
       <r>     2.4932     8.1740   112.5526 </r>
       <r>     2.5823    13.1565   113.7249 </r>
       <r>     2.6714    17.2082   115.2582 </r>
       <r>     2.7605    16.1114   116.6938 </r>
       <r>     2.8496    12.7829   117.8328 </r>
       <r>     2.9387    13.4925   119.0351 </r>
       <r>     3.0278    18.8421   120.7140 </r>
       <r>     3.1169    24.6286   122.9085 </r>
       <r>     3.2060    28.8790   125.4817 </r>
       <r>     3.2951    31.1814   128.2601 </r>
       <r>     3.3842    30.2514   130.9556 </r>
       <r>     3.4733    27.7664   133.4297 </r>
       <r>     3.5624    25.9342   135.7405 </r>
       <r>     3.6515    22.4915   137.7446 </r>
       <r>     3.7406    16.7879   139.2404 </r>
       <r>     3.8297    13.9413   140.4827 </r>
       <r>     3.9188    17.3499   142.0286 </r>
       <r>     4.0080    22.4071   144.0252 </r>
       <r>     4.0971    22.6286   146.0414 </r>
       <r>     4.1862    19.7619   147.8023 </r>
       <r>     4.2753    21.2659   149.6972 </r>
       <r>     4.3644    28.0237   152.1942 </r>
       <r>     4.4535    33.5091   155.1800 </r>
       <r>     4.5426    34.4274   158.2476 </r>
       <r>     4.6317    33.0730   161.1945 </r>
       <r>     4.7208    32.5910   164.0985 </r>
       <r>     4.8099    34.6181   167.1831 </r>
       <r>     4.8990    37.1023   170.4890 </r>
       <r>     4.9881    36.1624   173.7112 </r>
       <r>     5.0772    32.3616   176.5948 </r>
       <r>     5.1663    29.7865   179.2489 </r>
       <r>     5.2554    30.0645   181.9277 </r>
       <r>     5.3445    31.3270   184.7191 </r>
       <r>     5.4336    32.4070   187.6067 </r>
       <r>     5.5227    34.8942   190.7159 </r>
       <r>     5.6118    38.4709   194.1438 </r>
       <r>     5.7009    39.1543   197.6326 </r>
       <r>     5.7900    36.5152   200.8862 </r>
       <r>     5.8791    34.8561   203.9920 </r>
       <r>     5.9682    34.4934   207.0655 </r>
       <r>     6.0573    31.8364   209.9022 </r>
       <r>     6.1464    28.3585   212.4291 </r>
       <r>     6.2355    28.8760   215.0020 </r>
       <r>     6.3246    32.4869   217.8968 </r>
       <r>     6.4138    34.8343   221.0006 </r>
       <r>     6.5029    34.1259   224.0414 </r>
       <r>     6.5920    30.8087   226.7865 </r>
       <r>     6.6811    27.7980   229.2634 </r>
       <r>     6.7702    28.5226   231.8049 </r>
       <r>     6.8593    32.6573   234.7148 </r>
       <r>     6.9484    36.1121   237.9325 </r>
       <r>     7.0375    34.0705   240.9683 </r>
       <r>     7.1266    26.0432   243.2889 </r>
       <r>     7.2157    17.4137   244.8405 </r>
       <r>     7.3048    13.3543   246.0304 </r>
       <r>     7.3939    14.2176   247.2972 </r>
       <r>     7.4830    17.2921   248.8380 </r>
       <r>     7.5721    19.6903   250.5925 </r>
       <r>     7.6612    19.4263   252.3235 </r>
       <r>     7.7503    15.8448   253.7353 </r>
       <r>     7.8394    10.2916   254.6523 </r>
       <r>     7.9285     5.8883   255.1770 </r>
       <r>     8.0176     4.1867   255.5500 </r>
       <r>     8.1067     3.3187   255.8457 </r>
       <r>     8.1958     1.7562   256.0022 </r>
       <r>     8.2849     0.3385   256.0324 </r>
       <r>     8.3740    -0.1692   256.0173 </r>
       <r>     8.4631    -0.1384   256.0050 </r>
       <r>     8.5522    -0.0457   256.0009 </r>
       <r>     8.6413    -0.0090   256.0001 </r>
       <r>     8.7304    -0.0019   255.9999 </r>
       <r>     8.8195    -0.0048   255.9995 </r>
       <r>     8.9087    -0.0160   255.9981 </r>
       <r>     8.9978    -0.0235   255.9960 </r>
       <r>     9.0869     0.0284   255.9985 </r>
       <r>     9.1760     0.1990   256.0162 </r>
       <r>     9.2651     0.4219   256.0538 </r>
       <r>     9.3542     0.5405   256.1020 </r>
       <r>     9.4433     0.6115   256.1565 </r>
       <r>     9.5324     0.9786   256.2437 </r>
       <r>     9.6215     1.6348   256.3893 </r>
       <r>     9.7106     1.8087   256.5505 </r>
       <r>     9.7997     1.0658   256.6455 </r>
       <r>     9.8888     0.1462   256.6585 </r>
       <r>     9.9779    -0.0409   256.6548 </r>
       <r>    10.0670     0.7831   256.7246 </r>
       <r>    10.1561     2.4228   256.9405 </r>
       <r>    10.2452     4.4769   257.3394 </r>
       <r>    10.3343     6.5893   257.9265 </r>
       <r>    10.4234     8.5572   258.6890 </r>
       <r>    10.5125    10.3498   259.6112 </r>
       <r>    10.6016    11.3182   260.6197 </r>
       <r>    10.6907    10.1126   261.5208 </r>
       <r>    10.7798     6.8103   262.1276 </r>
       <r>    10.8689     3.1453   262.4079 </r>
       <r>    10.9580     0.5288   262.4550 </r>
       <r>    11.0471    -0.4583   262.4142 </r>
       <r>    11.1362     0.6150   262.4690 </r>
       <r>    11.2253     3.7528   262.8033 </r>
       <r>    11.3145     7.2260   263.4472 </r>
       <r>    11.4036     9.0008   264.2492 </r>
       <r>    11.4927     9.7586   265.1187 </r>
       <r>    11.5818    11.0643   266.1046 </r>
       <r>    11.6709    12.8170   267.2466 </r>
       <r>    11.7600    15.2478   268.6053 </r>
       <r>    11.8491    18.3309   270.2386 </r>
       <r>    11.9382    19.8042   272.0033 </r>
       <r>    12.0273    18.7784   273.6765 </r>
       <r>    12.1164    16.7667   275.1705 </r>
       <r>    12.2055    13.4449   276.3684 </r>
       <r>    12.2946     8.3824   277.1153 </r>
       <r>    12.3837     5.2588   277.5839 </r>
       <r>    12.4728     7.4633   278.2489 </r>
       <r>    12.5619    13.5755   279.4586 </r>
       <r>    12.6510    20.3920   281.2756 </r>
       <r>    12.7401    25.8568   283.5795 </r>
       <r>    12.8292    29.2380   286.1847 </r>
       <r>    12.9183    31.1348   288.9589 </r>
       <r>    13.0074    32.4125   291.8470 </r>
       <r>    13.0965    32.5620   294.7484 </r>
       <r>    13.1856    29.7636   297.4004 </r>
       <r>    13.2747    23.3248   299.4788 </r>
       <r>    13.3638    17.0382   300.9969 </r>
       <r>    13.4529    17.4880   302.5552 </r>
       <r>    13.5420    25.2433   304.8045 </r>
       <r>    13.6311    32.3445   307.6865 </r>
       <r>    13.7203    32.6776   310.5982 </r>
       <r>    13.8094    29.1386   313.1945 </r>
       <r>    13.8985    27.9815   315.6878 </r>
       <r>    13.9876    30.2359   318.3819 </r>
       <r>    14.0767    31.1849   321.1606 </r>
       <r>    14.1658    27.0191   323.5681 </r>
       <r>    14.2549    18.7264   325.2367 </r>
       <r>    14.3440    10.0185   326.1294 </r>
       <r>    14.4331     4.9210   326.5679 </r>
       <r>    14.5222     6.3674   327.1352 </r>
       <r>    14.6113    13.4940   328.3376 </r>
       <r>    14.7004    20.4887   330.1632 </r>
       <r>    14.7895    21.5655   332.0848 </r>
       <r>    14.8786    16.7020   333.5730 </r>
       <r>    14.9677     9.7566   334.4423 </r>
       <r>    15.0568     3.9470   334.7940 </r>
       <r>    15.1459     1.2035   334.9012 </r>
       <r>    15.2350     1.9410   335.0742 </r>
       <r>    15.3241     3.9329   335.4246 </r>
       <r>    15.4132     4.1314   335.7928 </r>
       <r>    15.5023     2.2697   335.9950 </r>
       <r>    15.5914     0.4555   336.0356 </r>
       <r>    15.6805    -0.1867   336.0190 </r>
       <r>    15.7696    -0.1545   336.0052 </r>
       <r>    15.8587    -0.0485   336.0009 </r>
       <r>    15.9478    -0.0087   336.0001 </r>
       <r>    16.0369    -0.0010   336.0000 </r>
       <r>    16.1261    -0.0001   336.0000 </r>
       <r>    16.2152    -0.0000   336.0000 </r>
       <r>    16.3043    -0.0000   336.0000 </r>
       <r>    16.3934    -0.0000   336.0000 </r>
       <r>    16.4825    -0.0000   336.0000 </r>
       <r>    16.5716    -0.0000   336.0000 </r>
       <r>    16.6607    -0.0000   336.0000 </r>
       <r>    16.7498     0.0000   336.0000 </r>
       <r>    16.8389     0.0000   336.0000 </r>
       <r>    16.9280     0.0000   336.0000 </r>
       <r>    17.0171     0.0000   336.0000 </r>
       <r>    17.1062     0.0000   336.0000 </r>
       <r>    17.1953     0.0000   336.0000 </r>
       <r>    17.2844     0.0000   336.0000 </r>
       <r>    17.3735     0.0000   336.0000 </r>
      </set>
     </set>
    </array>
   </total>
  </dos>
 </calculation>
 <structure name="finalpos" >
  <crystal>
   <varray name="basis" >
    <v>       8.74331558       0.00000000       0.00000000 </v>
    <v>       0.00000000       8.74331558       0.00000000 </v>
    <v>       0.00000000       0.00000000       8.74331558 </v>
   </varray>
   <i name="volume">    668.38771987 </i>
   <varray name="rec_basis" >
    <v>       0.11437309       0.00000000       0.00000000 </v>
    <v>       0.00000000       0.11437309       0.00000000 </v>
    <v>       0.00000000       0.00000000       0.11437309 </v>
   </varray>
  </crystal>
  <varray name="positions" >
   <v>       0.12838532       0.12548232       0.13044679 </v>
   <v>       0.12140474       0.37931031       0.37183127 </v>
   <v>       0.37613996       0.12318047       0.37580393 </v>
   <v>       0.37881128       0.37372799       0.12656532 </v>
   <v>       0.12367759       0.12952094       0.63065627 </v>
   <v>       0.12804766       0.37332625       0.88020493 </v>
   <v>       0.37848064       0.12317639       0.87605500 </v>
   <v>       0.38031660       0.37794139       0.62382402 </v>
   <v>       0.12053229       0.62175191       0.12987095 </v>
   <v>       0.12762033       0.87795573       0.36999410 </v>
   <v>       0.37380641       0.62683535       0.36923141 </v>
   <v>       0.36859695       0.87429189       0.12531983 </v>
   <v>       0.12179852       0.62465501       0.62360919 </v>
   <v>       0.12518393       0.86678612       0.87032064 </v>
   <v>       0.38102353       0.61926895       0.87265776 </v>
   <v>       0.37439089       0.88170219       0.62645253 </v>
   <v>       0.63212916       0.12156093       0.11972015 </v>
   <v>       0.62567122       0.36887206       0.36655079 </v>
   <v>       0.87551585       0.12315161       0.37939825 </v>
   <v>       0.87611058       0.38000418       0.12319264 </v>
   <v>       0.62370908       0.12338274       0.63007802 </v>
   <v>       0.62764529       0.38055939       0.87987267 </v>
   <v>       0.87375954       0.12468669       0.87579595 </v>
   <v>       0.87700963       0.37552977       0.62679993 </v>
   <v>       0.62140034       0.62549162       0.12799836 </v>
   <v>       0.62632075       0.87045315       0.37421238 </v>
   <v>       0.87543469       0.62161295       0.37245362 </v>
   <v>       0.86842268       0.86743646       0.12209997 </v>
   <v>       0.61854540       0.61256794       0.62596693 </v>
   <v>       0.62646846       0.87333975       0.87843618 </v>
   <v>       0.87353278       0.62495150       0.87783396 </v>
   <v>       0.87582164       0.87617957       0.62451082 </v>
   <v>       0.99863592       0.99810813       0.99602998 </v>
   <v>       0.00148538       0.24989734       0.25197825 </v>
   <v>       0.24341411       0.00154762       0.24516719 </v>
   <v>       0.24814113       0.24725994       0.99602291 </v>
   <v>       0.00329338       0.99957999       0.50238811 </v>
   <v>       0.99655596       0.24639797       0.75337430 </v>
   <v>       0.25514210       0.00104714       0.75018170 </v>
   <v>       0.25970674       0.25010761       0.49482425 </v>
   <v>       0.00322023       0.50228808       0.00072700 </v>
   <v>       0.99692391       0.74910682       0.24952313 </v>
   <v>       0.24353310       0.50047322       0.25237663 </v>
   <v>       0.25664908       0.75067193       0.99245071 </v>
   <v>       0.00036531       0.49767320       0.50043321 </v>
   <v>       0.00062306       0.75132990       0.74661783 </v>
   <v>       0.25579987       0.50114193       0.75654391 </v>
   <v>       0.24841796       0.75030799       0.49858189 </v>
   <v>       0.50405365       0.99430154       0.00193658 </v>
   <v>       0.50032200       0.24546374       0.25305863 </v>
   <v>       0.76050173       0.99768713       0.24672477 </v>
   <v>       0.74887306       0.24852508       0.99502747 </v>
   <v>       0.49884358       0.00337936       0.49487075 </v>
   <v>       0.50106997       0.24474206       0.74563697 </v>
   <v>       0.74646297       0.00086860       0.75358639 </v>
   <v>       0.75315850       0.25315181       0.49625899 </v>
   <v>       0.50312779       0.50232333       0.00111115 </v>
   <v>       0.50550701       0.74958654       0.25127785 </v>
   <v>       0.75604616       0.49842296       0.25365806 </v>
   <v>       0.75091483       0.74374256       0.99804710 </v>
   <v>       0.49829362       0.49062306       0.49772667 </v>
   <v>       0.50224414       0.75327455       0.74974499 </v>
   <v>       0.75169941       0.49947664       0.74969111 </v>
   <v>       0.75186913       0.74920916       0.50297176 </v>
  </varray>
 </structure>
</modeling>
