unknown system                          
           1
     8.743316    0.000000    0.000000
     0.000000    8.743316    0.000000
     0.000000    0.000000    8.743316
   C    Si
    32    32
Direct configuration=     1
   0.12838532  0.12548232  0.13044679
   0.12140474  0.37931031  0.37183127
   0.37613996  0.12318047  0.37580393
   0.37881128  0.37372799  0.12656532
   0.12367759  0.12952094  0.63065627
   0.12804766  0.37332625  0.88020493
   0.37848064  0.12317639  0.87605500
   0.38031660  0.37794139  0.62382402
   0.12053229  0.62175191  0.12987095
   0.12762033  0.87795573  0.36999410
   0.37380641  0.62683535  0.36923141
   0.36859695  0.87429189  0.12531983
   0.12179852  0.62465501  0.62360919
   0.12518393  0.86678612  0.87032064
   0.38102353  0.61926895  0.87265776
   0.37439089  0.88170219  0.62645253
   0.63212916  0.12156093  0.11972015
   0.62567122  0.36887206  0.36655079
   0.87551585  0.12315161  0.37939825
   0.87611058  0.38000418  0.12319264
   0.62370908  0.12338274  0.63007802
   0.62764529  0.38055939  0.87987267
   0.87375954  0.12468669  0.87579595
   0.87700963  0.37552977  0.62679993
   0.62140034  0.62549162  0.12799836
   0.62632075  0.87045315  0.37421238
   0.87543469  0.62161295  0.37245362
   0.86842268  0.86743646  0.12209997
   0.61854540  0.61256794  0.62596693
   0.62646846  0.87333975  0.87843618
   0.87353278  0.62495150  0.87783396
   0.87582164  0.87617957  0.62451082
   0.99863592  0.99810813  0.99602998
   0.00148538  0.24989734  0.25197825
   0.24341411  0.00154762  0.24516719
   0.24814113  0.24725994  0.99602291
   0.00329338  0.99957999  0.50238811
   0.99655596  0.24639797  0.75337430
   0.25514210  0.00104714  0.75018170
   0.25970674  0.25010761  0.49482425
   0.00322023  0.50228808  0.00072700
   0.99692391  0.74910682  0.24952313
   0.24353310  0.50047322  0.25237663
   0.25664908  0.75067193  0.99245071
   0.00036531  0.49767320  0.50043321
   0.00062306  0.75132990  0.74661783
   0.25579987  0.50114193  0.75654391
   0.24841796  0.75030799  0.49858189
   0.50405365  0.99430154  0.00193658
   0.50032200  0.24546374  0.25305863
   0.76050173  0.99768713  0.24672477
   0.74887306  0.24852508  0.99502747
   0.49884358  0.00337936  0.49487075
   0.50106997  0.24474206  0.74563697
   0.74646297  0.00086860  0.75358639
   0.75315850  0.25315181  0.49625899
   0.50312779  0.50232333  0.00111115
   0.50550701  0.74958654  0.25127785
   0.75604616  0.49842296  0.25365806
   0.75091483  0.74374256  0.99804710
   0.49829362  0.49062306  0.49772667
   0.50224414  0.75327455  0.74974499
   0.75169941  0.49947664  0.74969111
   0.75186913  0.74920916  0.50297176
