       N       E                     dE             d eps       ncg     rms          rms(c)
DAV:   1     0.669742727528E+03    0.66974E+03   -0.99560E+04  4704   0.111E+03
DAV:   2    -0.461859779435E+03   -0.11316E+04   -0.10711E+04  5816   0.221E+02
DAV:   3    -0.537207072637E+03   -0.75347E+02   -0.74639E+02  5664   0.562E+01
DAV:   4    -0.538878467677E+03   -0.16714E+01   -0.16645E+01  5680   0.907E+00
DAV:   5    -0.538924211415E+03   -0.45744E-01   -0.45667E-01  5592   0.143E+00    0.493E+01
DAV:   6    -0.482078470884E+03    0.56846E+02   -0.19072E+02  5344   0.235E+01    0.219E+01
DAV:   7    -0.480736654537E+03    0.13418E+01   -0.15833E+01  5880   0.707E+00    0.976E+00
DAV:   8    -0.480506195750E+03    0.23046E+00   -0.10208E+00  5416   0.198E+00    0.267E+00
DAV:   9    -0.480489937571E+03    0.16258E-01   -0.14500E-01  5504   0.831E-01    0.446E-01
DAV:  10    -0.480492895411E+03   -0.29578E-02   -0.13902E-02  5736   0.263E-01    0.246E-01
DAV:  11    -0.480493958404E+03   -0.10630E-02   -0.20631E-03  5200   0.116E-01    0.901E-02
DAV:  12    -0.480494022160E+03   -0.63756E-04   -0.35504E-04  6160   0.466E-02    0.413E-02
DAV:  13    -0.480494036496E+03   -0.14335E-04   -0.98684E-05  5128   0.233E-02    0.104E-02
DAV:  14    -0.480494041948E+03   -0.54520E-05   -0.64170E-06  5528   0.596E-03    0.539E-03
DAV:  15    -0.480494043675E+03   -0.17269E-05   -0.23161E-06  5728   0.336E-03    0.383E-03
DAV:  16    -0.480494043485E+03    0.18967E-06   -0.30232E-07  5936   0.143E-03    0.127E-03
DAV:  17    -0.480494043858E+03   -0.37311E-06   -0.94935E-08  5240   0.677E-04    0.740E-04
DAV:  18    -0.480494043871E+03   -0.13271E-07   -0.55162E-09  2728   0.194E-04    0.262E-04
DAV:  19    -0.480494043844E+03    0.26874E-07   -0.42270E-09  2696   0.152E-04    0.829E-05
DAV:  20    -0.480494043855E+03   -0.10641E-07   -0.66261E-10  2688   0.741E-05    0.577E-05
DAV:  21    -0.480494043849E+03    0.56898E-08   -0.21613E-10  2688   0.331E-05
   1 F= -.48049404E+03 E0= -.48049742E+03  d E =0.101253E-01
