<?xml version="1.0" encoding="ISO-8859-1"?>
<modeling>
 <generator>
  <i name="program" type="string">vasp </i>
  <i name="version" type="string">6.2.1  </i>
  <i name="subversion" type="string">16May21 (build Jun 06 2020 10:27:25) complex                          parallel </i>
  <i name="platform" type="string">LinuxIFC </i>
  <i name="date" type="string">2024 01 25 </i>
  <i name="time" type="string">16:59:28 </i>
 </generator>
 <incar>
  <i type="int" name="NELM">    60</i>
  <i type="int" name="IBRION">     1</i>
  <i name="EDIFF">      0.00000001</i>
  <i type="int" name="NSW">     0</i>
  <i type="int" name="ISIF">     3</i>
  <i type="int" name="ISYM">     0</i>
  <i type="logical" name="LWAVE"> F  </i>
  <i type="logical" name="LCHARG"> F  </i>
  <i type="string" name="GGA">PE</i>
 </incar>
 <primitive_cell>
  <structure name="primitive_cell" >
   <crystal>
    <varray name="basis" >
     <v>       8.74331558       0.00000000       0.00000000 </v>
     <v>       0.00000000       8.74331558       0.00000000 </v>
     <v>       0.00000000       0.00000000       8.74331558 </v>
    </varray>
    <i name="volume">    668.38771987 </i>
    <varray name="rec_basis" >
     <v>       0.11437309       0.00000000       0.00000000 </v>
     <v>       0.00000000       0.11437309       0.00000000 </v>
     <v>       0.00000000       0.00000000       0.11437309 </v>
    </varray>
   </crystal>
   <varray name="positions" >
    <v>       0.12146901       0.12690591       0.12112512 </v>
    <v>       0.12516724       0.37597315       0.37577829 </v>
    <v>       0.37804532       0.12481087       0.37381527 </v>
    <v>       0.37177849       0.37111036       0.12229774 </v>
    <v>       0.12360349       0.12435766       0.62737649 </v>
    <v>       0.12673483       0.37839559       0.87795708 </v>
    <v>       0.37605274       0.12491970       0.87809680 </v>
    <v>       0.37652388       0.37215694       0.62592560 </v>
    <v>       0.12390544       0.63210312       0.12694734 </v>
    <v>       0.13109220       0.87279491       0.37238615 </v>
    <v>       0.37133643       0.62357024       0.37460426 </v>
    <v>       0.37245018       0.87008082       0.12646154 </v>
    <v>       0.12741929       0.62636339       0.62203181 </v>
    <v>       0.12275146       0.87308958       0.87526180 </v>
    <v>       0.37536688       0.62547587       0.86837655 </v>
    <v>       0.37308183       0.87663900       0.62443107 </v>
    <v>       0.62584350       0.12243271       0.12613199 </v>
    <v>       0.62627600       0.37057164       0.37845891 </v>
    <v>       0.87078574       0.12326965       0.37852561 </v>
    <v>       0.87656848       0.38082900       0.12738465 </v>
    <v>       0.62349812       0.12575110       0.62786018 </v>
    <v>       0.62447553       0.37702234       0.87250376 </v>
    <v>       0.87405926       0.12497490       0.87145950 </v>
    <v>       0.87542950       0.37321433       0.62465467 </v>
    <v>       0.62728251       0.62773984       0.12433729 </v>
    <v>       0.62231655       0.87675862       0.37911967 </v>
    <v>       0.87817360       0.62397955       0.37478278 </v>
    <v>       0.87051095       0.87636197       0.12131104 </v>
    <v>       0.62460136       0.62383839       0.62425439 </v>
    <v>       0.62713483       0.87356929       0.87460340 </v>
    <v>       0.87425876       0.61905066       0.87591711 </v>
    <v>       0.87250093       0.87293107       0.63554651 </v>
    <v>       0.00642123       0.99689758       0.00190996 </v>
    <v>       0.99874132       0.25177121       0.24759396 </v>
    <v>       0.24298952       0.00158960       0.25049092 </v>
    <v>       0.25006130       0.24538340       0.99882381 </v>
    <v>       0.99378505       0.99627820       0.49544159 </v>
    <v>       0.00333581       0.25297270       0.74815473 </v>
    <v>       0.25451063       0.99938331       0.74618978 </v>
    <v>       0.24313724       0.24755456       0.50442269 </v>
    <v>       0.00202011       0.50268012       0.00036083 </v>
    <v>       0.99890740       0.74640596       0.24790388 </v>
    <v>       0.25087956       0.49770114       0.25128950 </v>
    <v>       0.25730751       0.75384764       0.99883209 </v>
    <v>       0.99965899       0.49914264       0.49924957 </v>
    <v>       0.99411611       0.74592888       0.74869677 </v>
    <v>       0.25351435       0.50105210       0.75017671 </v>
    <v>       0.25303843       0.75460527       0.49848618 </v>
    <v>       0.50690738       0.00423585       0.00007965 </v>
    <v>       0.50020485       0.25183319       0.24676317 </v>
    <v>       0.74724919       0.99610256       0.24521283 </v>
    <v>       0.74885378       0.24753328       0.00137138 </v>
    <v>       0.50106919       0.00139183       0.50059668 </v>
    <v>       0.50038069       0.25122288       0.75458903 </v>
    <v>       0.75220948       0.99775507       0.74941390 </v>
    <v>       0.74988545       0.24388525       0.50664621 </v>
    <v>       0.49921186       0.50005169       0.00220620 </v>
    <v>       0.49509819       0.75010160       0.24611680 </v>
    <v>       0.74658344       0.50171620       0.24618529 </v>
    <v>       0.75039224       0.75352110       0.00279357 </v>
    <v>       0.50113369       0.49930506       0.49834063 </v>
    <v>       0.50700967       0.74868126       0.74686109 </v>
    <v>       0.75163054       0.50151014       0.74817665 </v>
    <v>       0.75339889       0.75015854       0.49686007 </v>
   </varray>
  </structure>
  <varray name="primitive_index" >
   <v type="int" >        1 </v>
   <v type="int" >        2 </v>
   <v type="int" >        3 </v>
   <v type="int" >        4 </v>
   <v type="int" >        5 </v>
   <v type="int" >        6 </v>
   <v type="int" >        7 </v>
   <v type="int" >        8 </v>
   <v type="int" >        9 </v>
   <v type="int" >       10 </v>
   <v type="int" >       11 </v>
   <v type="int" >       12 </v>
   <v type="int" >       13 </v>
   <v type="int" >       14 </v>
   <v type="int" >       15 </v>
   <v type="int" >       16 </v>
   <v type="int" >       17 </v>
   <v type="int" >       18 </v>
   <v type="int" >       19 </v>
   <v type="int" >       20 </v>
   <v type="int" >       21 </v>
   <v type="int" >       22 </v>
   <v type="int" >       23 </v>
   <v type="int" >       24 </v>
   <v type="int" >       25 </v>
   <v type="int" >       26 </v>
   <v type="int" >       27 </v>
   <v type="int" >       28 </v>
   <v type="int" >       29 </v>
   <v type="int" >       30 </v>
   <v type="int" >       31 </v>
   <v type="int" >       32 </v>
   <v type="int" >       33 </v>
   <v type="int" >       34 </v>
   <v type="int" >       35 </v>
   <v type="int" >       36 </v>
   <v type="int" >       37 </v>
   <v type="int" >       38 </v>
   <v type="int" >       39 </v>
   <v type="int" >       40 </v>
   <v type="int" >       41 </v>
   <v type="int" >       42 </v>
   <v type="int" >       43 </v>
   <v type="int" >       44 </v>
   <v type="int" >       45 </v>
   <v type="int" >       46 </v>
   <v type="int" >       47 </v>
   <v type="int" >       48 </v>
   <v type="int" >       49 </v>
   <v type="int" >       50 </v>
   <v type="int" >       51 </v>
   <v type="int" >       52 </v>
   <v type="int" >       53 </v>
   <v type="int" >       54 </v>
   <v type="int" >       55 </v>
   <v type="int" >       56 </v>
   <v type="int" >       57 </v>
   <v type="int" >       58 </v>
   <v type="int" >       59 </v>
   <v type="int" >       60 </v>
   <v type="int" >       61 </v>
   <v type="int" >       62 </v>
   <v type="int" >       63 </v>
   <v type="int" >       64 </v>
  </varray>
 </primitive_cell>
 <kpoints>
  <generation param="Monkhorst-Pack">
   <v type="int" name="divisions">       3        3        3 </v>
   <v name="usershift">      0.00000000       0.00000000       0.00000000 </v>
   <v name="genvec1">      0.33333333       0.00000000       0.00000000 </v>
   <v name="genvec2">      0.00000000       0.33333333       0.00000000 </v>
   <v name="genvec3">      0.00000000       0.00000000       0.33333333 </v>
   <v name="shift">      0.00000000       0.00000000       0.00000000 </v>
  </generation>
  <varray name="kpointlist" >
   <v>       0.00000000       0.00000000       0.00000000 </v>
   <v>       0.33333333       0.00000000       0.00000000 </v>
   <v>       0.00000000       0.33333333       0.00000000 </v>
   <v>       0.00000000       0.00000000       0.33333333 </v>
   <v>       0.33333333       0.33333333       0.00000000 </v>
   <v>       0.00000000       0.33333333       0.33333333 </v>
   <v>       0.33333333       0.00000000       0.33333333 </v>
   <v>      -0.33333333       0.33333333       0.00000000 </v>
   <v>      -0.33333333       0.00000000       0.33333333 </v>
   <v>       0.00000000      -0.33333333       0.33333333 </v>
   <v>       0.33333333       0.33333333       0.33333333 </v>
   <v>      -0.33333333       0.33333333       0.33333333 </v>
   <v>      -0.33333333      -0.33333333       0.33333333 </v>
   <v>       0.33333333      -0.33333333       0.33333333 </v>
  </varray>
  <varray name="weights" >
   <v>       0.03703704 </v>
   <v>       0.07407407 </v>
   <v>       0.07407407 </v>
   <v>       0.07407407 </v>
   <v>       0.07407407 </v>
   <v>       0.07407407 </v>
   <v>       0.07407407 </v>
   <v>       0.07407407 </v>
   <v>       0.07407407 </v>
   <v>       0.07407407 </v>
   <v>       0.07407407 </v>
   <v>       0.07407407 </v>
   <v>       0.07407407 </v>
   <v>       0.07407407 </v>
  </varray>
 </kpoints>
 <parameters>
  <separator name="general" >
   <i type="string" name="SYSTEM">unknown system</i>
   <i type="logical" name="LCOMPAT"> F  </i>
  </separator>
  <separator name="electronic" >
   <i type="string" name="PREC">normal</i>
   <i name="ENMAX">    400.00000000</i>
   <i name="ENAUG">    644.87300000</i>
   <i name="EDIFF">      0.00000001</i>
   <i type="int" name="IALGO">    38</i>
   <i type="int" name="IWAVPR">    10</i>
   <i type="int" name="NBANDS">   168</i>
   <i type="int" name="NBANDSLOW">    -1</i>
   <i type="int" name="NBANDSHIGH">    -1</i>
   <i name="NELECT">    256.00000000</i>
   <i type="int" name="TURBO">     0</i>
   <i type="int" name="IRESTART">     0</i>
   <i type="int" name="NREBOOT">     0</i>
   <i type="int" name="NMIN">     0</i>
   <i name="EREF">      0.00000000</i>
   <separator name="electronic smearing" >
    <i type="int" name="ISMEAR">     1</i>
    <i name="SIGMA">      0.20000000</i>
    <i name="KSPACING">      0.50000000</i>
    <i type="logical" name="KGAMMA"> T  </i>
    <i type="logical" name="KBLOWUP"> T  </i>
   </separator>
   <separator name="electronic projectors" >
    <i type="logical" name="LREAL"> F  </i>
    <v name="ROPT">      0.00000000      0.00000000</v>
    <i type="int" name="LMAXPAW">  -100</i>
    <i type="int" name="LMAXMIX">     2</i>
    <i type="logical" name="NLSPLINE"> F  </i>
   </separator>
   <separator name="electronic startup" >
    <i type="int" name="ISTART">     0</i>
    <i type="int" name="ICHARG">     2</i>
    <i type="int" name="INIWAV">     1</i>
   </separator>
   <separator name="electronic spin" >
    <i type="int" name="ISPIN">     1</i>
    <i type="logical" name="LNONCOLLINEAR"> F  </i>
    <v name="MAGMOM">      1.00000000      1.00000000      1.00000000      1.00000000      1.00000000      1.00000000      1.00000000      1.00000000      1.00000000      1.00000000      1.00000000      1.00000000      1.00000000      1.00000000      1.00000000      1.00000000      1.00000000      1.00000000      1.00000000      1.00000000
      1.00000000      1.00000000      1.00000000      1.00000000      1.00000000      1.00000000      1.00000000      1.00000000      1.00000000      1.00000000      1.00000000      1.00000000      1.00000000      1.00000000      1.00000000      1.00000000      1.00000000      1.00000000      1.00000000      1.00000000
      1.00000000      1.00000000      1.00000000      1.00000000      1.00000000      1.00000000      1.00000000      1.00000000      1.00000000      1.00000000      1.00000000      1.00000000      1.00000000      1.00000000      1.00000000      1.00000000      1.00000000      1.00000000      1.00000000      1.00000000
      1.00000000      1.00000000      1.00000000      1.00000000</v>
    <i name="NUPDOWN">     -1.00000000</i>
    <i type="logical" name="LSORBIT"> F  </i>
    <v name="SAXIS">      0.00000000      0.00000000      1.00000000</v>
    <i type="logical" name="LSPIRAL"> F  </i>
    <v name="QSPIRAL">      0.00000000      0.00000000      0.00000000</v>
    <i type="logical" name="LZEROZ"> F  </i>
   </separator>
   <separator name="electronic exchange-correlation" >
    <i type="logical" name="LASPH"> F  </i>
    <i type="logical" name="LMETAGGA"> F  </i>
   </separator>
   <separator name="electronic convergence" >
    <i type="int" name="NELM">    60</i>
    <i type="int" name="NELMDL">    -5</i>
    <i type="int" name="NELMIN">     2</i>
    <i name="ENINI">    400.00000000</i>
    <separator name="electronic convergence detail" >
     <i type="logical" name="LDIAG"> T  </i>
     <i type="logical" name="LSUBROT"> F  </i>
     <i name="WEIMIN">      0.00000000</i>
     <i name="EBREAK">      0.00000000</i>
     <i name="DEPER">      0.30000000</i>
     <i type="int" name="NRMM">     4</i>
     <i name="TIME">      0.40000000</i>
    </separator>
   </separator>
   <separator name="electronic mixer" >
    <i name="AMIX">      0.40000000</i>
    <i name="BMIX">      1.00000000</i>
    <i name="AMIN">      0.10000000</i>
    <i name="AMIX_MAG">      1.60000000</i>
    <i name="BMIX_MAG">      1.00000000</i>
    <separator name="electronic mixer details" >
     <i type="int" name="IMIX">     4</i>
     <i type="logical" name="MIXFIRST"> F  </i>
     <i type="int" name="MAXMIX">   -45</i>
     <i name="WC">    100.00000000</i>
     <i type="int" name="INIMIX">     1</i>
     <i type="int" name="MIXPRE">     1</i>
     <i type="int" name="MREMOVE">     5</i>
    </separator>
   </separator>
   <separator name="electronic dipolcorrection" >
    <i type="logical" name="LDIPOL"> F  </i>
    <i type="logical" name="LMONO"> F  </i>
    <i type="int" name="IDIPOL">     0</i>
    <i name="EPSILON">      1.00000000</i>
    <v name="DIPOL">   -100.00000000   -100.00000000   -100.00000000</v>
    <i name="EFIELD">      0.00000000</i>
   </separator>
  </separator>
  <separator name="grids" >
   <i type="int" name="NGX">    48</i>
   <i type="int" name="NGY">    48</i>
   <i type="int" name="NGZ">    48</i>
   <i type="int" name="NGXF">    96</i>
   <i type="int" name="NGYF">    96</i>
   <i type="int" name="NGZF">    96</i>
   <i type="logical" name="ADDGRID"> F  </i>
  </separator>
  <separator name="ionic" >
   <i type="int" name="NSW">     0</i>
   <i type="int" name="IBRION">    -1</i>
   <i type="int" name="MDALGO">     0</i>
   <i type="int" name="ISIF">     3</i>
   <i name="PSTRESS">      0.00000000</i>
   <i name="EDIFFG">      0.00000010</i>
   <i type="int" name="NFREE">     0</i>
   <i name="POTIM">      0.50000000</i>
   <i name="SMASS">     -3.00000000</i>
   <i name="SCALEE">      1.00000000</i>
  </separator>
  <separator name="ionic md" >
   <i name="TEBEG">      0.00010000</i>
   <i name="TEEND">      0.00010000</i>
   <i type="int" name="NBLOCK">     1</i>
   <i type="int" name="KBLOCK">     1</i>
   <i type="int" name="NPACO">   256</i>
   <i name="APACO">     16.00000000</i>
  </separator>
  <separator name="symmetry" >
   <i type="int" name="ISYM">     0</i>
   <i name="SYMPREC">      0.00001000</i>
  </separator>
  <separator name="dos" >
   <i type="int" name="LORBIT">     0</i>
   <v name="RWIGS">     -1.00000000     -1.00000000</v>
   <i type="int" name="NEDOS">   301</i>
   <i name="EMIN">     10.00000000</i>
   <i name="EMAX">    -10.00000000</i>
   <i name="EFERMI">      0.00000000</i>
  </separator>
  <separator name="writing" >
   <i type="int" name="NWRITE">     2</i>
   <i type="logical" name="LWAVE"> F  </i>
   <i type="logical" name="LDOWNSAMPLE"> F  </i>
   <i type="logical" name="LCHARG"> F  </i>
   <i type="logical" name="LPARD"> F  </i>
   <i type="logical" name="LVTOT"> F  </i>
   <i type="logical" name="LVHAR"> F  </i>
   <i type="logical" name="LELF"> F  </i>
   <i type="logical" name="LOPTICS"> F  </i>
   <v name="STM">      0.00000000      0.00000000      0.00000000      0.00000000      0.00000000      0.00000000      0.00000000</v>
  </separator>
  <separator name="performance" >
   <i type="int" name="NPAR">     8</i>
   <i type="int" name="NSIM">     4</i>
   <i type="int" name="NBLK">    -1</i>
   <i type="logical" name="LPLANE"> T  </i>
   <i type="logical" name="LSCALAPACK"> T  </i>
   <i type="logical" name="LSCAAWARE"> F  </i>
   <i type="logical" name="LSCALU"> F  </i>
   <i type="logical" name="LASYNC"> F  </i>
   <i type="logical" name="LORBITALREAL"> F  </i>
  </separator>
  <separator name="miscellaneous" >
   <i type="int" name="IDIOT">     3</i>
   <i type="int" name="PHON_NSTRUCT">    -1</i>
   <i type="logical" name="LMUSIC"> F  </i>
   <v name="POMASS">     12.01100000     28.08500000</v>
   <v name="DARWINR">      0.00000000      0.00000000</v>
   <v name="DARWINV">      1.00000000      1.00000000</v>
   <i type="logical" name="LCORR"> T  </i>
  </separator>
  <i type="logical" name="GGA_COMPAT"> T  </i>
  <i type="logical" name="LBERRY"> F  </i>
  <i type="int" name="ICORELEVEL">     0</i>
  <i type="logical" name="LDAU"> F  </i>
  <i type="int" name="I_CONSTRAINED_M">     0</i>
  <separator name="electronic exchange-correlation" >
   <i type="string" name="GGA">PE</i>
   <i type="int" name="VOSKOWN">     0</i>
   <i type="logical" name="LHFCALC"> F  </i>
   <i type="string" name="PRECFOCK"></i>
   <i type="logical" name="LSYMGRAD"> F  </i>
   <i type="logical" name="LHFONE"> F  </i>
   <i type="logical" name="LRHFCALC"> F  </i>
   <i type="logical" name="LTHOMAS"> F  </i>
   <i type="logical" name="LMODELHF"> F  </i>
   <i type="logical" name="LFOCKACE"> F  </i>
   <i name="ENCUT4O">     -1.00000000</i>
   <i type="int" name="EXXOEP">     0</i>
   <i type="int" name="FOURORBIT">     0</i>
   <i name="AEXX">      0.00000000</i>
   <i name="HFALPHA">      0.00000000</i>
   <i name="MCALPHA">      0.00000000</i>
   <i name="ALDAX">      1.00000000</i>
   <i name="AGGAX">      1.00000000</i>
   <i name="ALDAC">      1.00000000</i>
   <i name="AGGAC">      1.00000000</i>
   <i type="int" name="NKREDX">     1</i>
   <i type="int" name="NKREDY">     1</i>
   <i type="int" name="NKREDZ">     1</i>
   <i type="logical" name="SHIFTRED"> F  </i>
   <i type="logical" name="ODDONLY"> F  </i>
   <i type="logical" name="EVENONLY"> F  </i>
   <i type="int" name="LMAXFOCK">     0</i>
   <i type="int" name="NMAXFOCKAE">     0</i>
   <i type="logical" name="LFOCKAEDFT"> F  </i>
   <i name="HFSCREEN">      0.00000000</i>
   <i name="HFSCREENC">      0.00000000</i>
   <i type="int" name="NBANDSGWLOW">     0</i>
  </separator>
  <separator name="vdW DFT" >
   <i type="logical" name="LUSE_VDW"> F  </i>
   <i name="Zab_VDW">     -0.84910000</i>
   <i name="PARAM1">      0.12340000</i>
   <i name="PARAM2">      1.00000000</i>
   <i name="PARAM3">      0.00000000</i>
  </separator>
  <separator name="model GW" >
   <i type="int" name="MODEL_GW">     0</i>
   <i name="MODEL_EPS0">      6.26613487</i>
   <i name="MODEL_ALPHA">      1.00000000</i>
  </separator>
  <separator name="linear response parameters" >
   <i type="logical" name="LEPSILON"> F  </i>
   <i type="logical" name="LRPA"> F  </i>
   <i type="logical" name="LNABLA"> F  </i>
   <i type="logical" name="LVEL"> F  </i>
   <i type="int" name="KINTER">     0</i>
   <i name="CSHIFT">      0.10000000</i>
   <i name="OMEGAMAX">     -1.00000000</i>
   <i name="DEG_THRESHOLD">      0.00200000</i>
   <i name="RTIME">     -0.10000000</i>
   <i name="WPLASMAI">      0.00000000</i>
   <v name="DFIELD">      0.00000000      0.00000000      0.00000000</v>
   <v name="WPLASMA">      0.00000000      0.00000000      0.00000000      0.00000000      0.00000000      0.00000000      0.00000000      0.00000000      0.00000000</v>
  </separator>
  <separator name="orbital magnetization" >
   <i type="logical" name="NUCIND"> F  </i>
   <v name="MAGPOS">      0.00000000      0.00000000      0.00000000</v>
   <i type="logical" name="LNICSALL"> T  </i>
   <i type="logical" name="ORBITALMAG"> F  </i>
   <i type="logical" name="LMAGBLOCH"> F  </i>
   <i type="logical" name="LCHIMAG"> F  </i>
   <i type="logical" name="LGAUGE"> T  </i>
   <i type="int" name="MAGATOM">     0</i>
   <v name="MAGDIPOL">      0.00000000      0.00000000      0.00000000</v>
   <v name="AVECCONST">      0.00000000      0.00000000      0.00000000</v>
  </separator>
  <separator name="response functions" >
   <i type="logical" name="LFINITE_TEMPERATURE"> F  </i>
   <i type="logical" name="LADDER"> F  </i>
   <i type="logical" name="LRPAFORCE"> F  </i>
   <i type="logical" name="LFXC"> F  </i>
   <i type="logical" name="LHARTREE"> T  </i>
   <i type="int" name="IBSE">     0</i>
   <v type="int" name="KPOINT">    -1     0     0     0</v>
   <i type="logical" name="LTCTC"> F  </i>
   <i type="logical" name="LTCTE"> F  </i>
   <i type="logical" name="LTETE"> F  </i>
   <i type="logical" name="LTRIPLET"> F  </i>
   <i type="logical" name="LFXCEPS"> F  </i>
   <i type="logical" name="LFXHEG"> F  </i>
   <i type="int" name="NATURALO">     2</i>
   <i type="logical" name="LHOLEGF"> F  </i>
   <i type="logical" name="L2ORDER"> F  </i>
   <i type="logical" name="LDMP1"> F  </i>
   <i type="logical" name="LMP2LT"> F  </i>
   <i type="logical" name="LSMP2LT"> F  </i>
   <i type="logical" name="LGWLF"> F  </i>
   <i name="ENCUTGW">     -2.00000000</i>
   <i name="ENCUTGWSOFT">     -2.00000000</i>
   <i name="ENCUTLF">     -1.00000000</i>
   <i type="logical" name="LESF_SPLINES"> F  </i>
   <i type="int" name="LMAXMP2">    -1</i>
   <i name="SCISSOR">      0.00000000</i>
   <i type="int" name="NOMEGA">     0</i>
   <i type="int" name="NOMEGAR">     0</i>
   <i type="int" name="NBANDSGW">    -1</i>
   <i type="int" name="NBANDSO">    -1</i>
   <i type="int" name="NBANDSV">    -1</i>
   <i type="int" name="NELM">    60</i>
   <i type="int" name="NELMHF">     1</i>
   <i type="int" name="DIM">     3</i>
   <i type="int" name="IESPILON">     4</i>
   <i type="int" name="ANTIRES">     0</i>
   <i name="OMEGAMAX">    -30.00000000</i>
   <i name="OMEGAMIN">    -30.00000000</i>
   <i name="OMEGATL">   -200.00000000</i>
   <i type="int" name="OMEGAGRID">     0</i>
   <i name="CSHIFT">     -0.10000000</i>
   <i type="logical" name="LSELFENERGY"> F  </i>
   <i type="logical" name="LSPECTRAL"> F  </i>
   <i type="logical" name="LSPECTRALGW"> F  </i>
   <i type="logical" name="LSINGLES"> F  </i>
   <i type="logical" name="LFERMIGW"> F  </i>
   <i type="logical" name="ODDONLYGW"> F  </i>
   <i type="logical" name="EVENONLYGW"> F  </i>
   <i type="int" name="NKREDLFX">     1</i>
   <i type="int" name="NKREDLFY">     1</i>
   <i type="int" name="NKREDLFZ">     1</i>
   <i type="int" name="MAXMEM">  2800</i>
   <i type="int" name="TELESCOPE">     0</i>
   <i type="int" name="NTAUPAR">    -1</i>
   <i type="int" name="NOMEGAPAR">    -1</i>
   <i name="DAMP_NEWTON">      0.80000001</i>
   <i name="LAMBDA">      1.00000000</i>
  </separator>
  <separator name="External order field" >
   <i name="OFIELD_KAPPA">      0.00000000</i>
   <v name="OFIELD_K">      0.00000000      0.00000000      0.00000000</v>
   <i name="OFIELD_Q6_NEAR">      0.00000000</i>
   <i name="OFIELD_Q6_FAR">      0.00000000</i>
   <i name="OFIELD_A">      0.00000000</i>
  </separator>
 </parameters>
 <atominfo>
  <atoms>      64 </atoms>
  <types>       2 </types>
  <array name="atoms" >
   <dimension dim="1">ion</dimension>
   <field type="string">element</field>
   <field type="int">atomtype</field>
   <set>
    <rc><c>C </c><c>   1</c></rc>
    <rc><c>C </c><c>   1</c></rc>
    <rc><c>C </c><c>   1</c></rc>
    <rc><c>C </c><c>   1</c></rc>
    <rc><c>C </c><c>   1</c></rc>
    <rc><c>C </c><c>   1</c></rc>
    <rc><c>C </c><c>   1</c></rc>
    <rc><c>C </c><c>   1</c></rc>
    <rc><c>C </c><c>   1</c></rc>
    <rc><c>C </c><c>   1</c></rc>
    <rc><c>C </c><c>   1</c></rc>
    <rc><c>C </c><c>   1</c></rc>
    <rc><c>C </c><c>   1</c></rc>
    <rc><c>C </c><c>   1</c></rc>
    <rc><c>C </c><c>   1</c></rc>
    <rc><c>C </c><c>   1</c></rc>
    <rc><c>C </c><c>   1</c></rc>
    <rc><c>C </c><c>   1</c></rc>
    <rc><c>C </c><c>   1</c></rc>
    <rc><c>C </c><c>   1</c></rc>
    <rc><c>C </c><c>   1</c></rc>
    <rc><c>C </c><c>   1</c></rc>
    <rc><c>C </c><c>   1</c></rc>
    <rc><c>C </c><c>   1</c></rc>
    <rc><c>C </c><c>   1</c></rc>
    <rc><c>C </c><c>   1</c></rc>
    <rc><c>C </c><c>   1</c></rc>
    <rc><c>C </c><c>   1</c></rc>
    <rc><c>C </c><c>   1</c></rc>
    <rc><c>C </c><c>   1</c></rc>
    <rc><c>C </c><c>   1</c></rc>
    <rc><c>C </c><c>   1</c></rc>
    <rc><c>Si</c><c>   2</c></rc>
    <rc><c>Si</c><c>   2</c></rc>
    <rc><c>Si</c><c>   2</c></rc>
    <rc><c>Si</c><c>   2</c></rc>
    <rc><c>Si</c><c>   2</c></rc>
    <rc><c>Si</c><c>   2</c></rc>
    <rc><c>Si</c><c>   2</c></rc>
    <rc><c>Si</c><c>   2</c></rc>
    <rc><c>Si</c><c>   2</c></rc>
    <rc><c>Si</c><c>   2</c></rc>
    <rc><c>Si</c><c>   2</c></rc>
    <rc><c>Si</c><c>   2</c></rc>
    <rc><c>Si</c><c>   2</c></rc>
    <rc><c>Si</c><c>   2</c></rc>
    <rc><c>Si</c><c>   2</c></rc>
    <rc><c>Si</c><c>   2</c></rc>
    <rc><c>Si</c><c>   2</c></rc>
    <rc><c>Si</c><c>   2</c></rc>
    <rc><c>Si</c><c>   2</c></rc>
    <rc><c>Si</c><c>   2</c></rc>
    <rc><c>Si</c><c>   2</c></rc>
    <rc><c>Si</c><c>   2</c></rc>
    <rc><c>Si</c><c>   2</c></rc>
    <rc><c>Si</c><c>   2</c></rc>
    <rc><c>Si</c><c>   2</c></rc>
    <rc><c>Si</c><c>   2</c></rc>
    <rc><c>Si</c><c>   2</c></rc>
    <rc><c>Si</c><c>   2</c></rc>
    <rc><c>Si</c><c>   2</c></rc>
    <rc><c>Si</c><c>   2</c></rc>
    <rc><c>Si</c><c>   2</c></rc>
    <rc><c>Si</c><c>   2</c></rc>
   </set>
  </array>
  <array name="atomtypes" >
   <dimension dim="1">type</dimension>
   <field type="int">atomspertype</field>
   <field type="string">element</field>
   <field>mass</field>
   <field>valence</field>
   <field type="string">pseudopotential</field>
   <set>
    <rc><c>  32</c><c>C </c><c>     12.01100000</c><c>      4.00000000</c><c>  PAW_PBE C 08Apr2002                   </c></rc>
    <rc><c>  32</c><c>Si</c><c>     28.08500000</c><c>      4.00000000</c><c>  PAW_PBE Si 05Jan2001                  </c></rc>
   </set>
  </array>
 </atominfo>
 <structure name="initialpos" >
  <crystal>
   <varray name="basis" >
    <v>       8.74331558       0.00000000       0.00000000 </v>
    <v>       0.00000000       8.74331558       0.00000000 </v>
    <v>       0.00000000       0.00000000       8.74331558 </v>
   </varray>
   <i name="volume">    668.38771987 </i>
   <varray name="rec_basis" >
    <v>       0.11437309       0.00000000       0.00000000 </v>
    <v>       0.00000000       0.11437309       0.00000000 </v>
    <v>       0.00000000       0.00000000       0.11437309 </v>
   </varray>
  </crystal>
  <varray name="positions" >
   <v>       0.12146901       0.12690591       0.12112512 </v>
   <v>       0.12516724       0.37597315       0.37577829 </v>
   <v>       0.37804532       0.12481087       0.37381527 </v>
   <v>       0.37177849       0.37111036       0.12229774 </v>
   <v>       0.12360349       0.12435766       0.62737649 </v>
   <v>       0.12673483       0.37839559       0.87795708 </v>
   <v>       0.37605274       0.12491970       0.87809680 </v>
   <v>       0.37652388       0.37215694       0.62592560 </v>
   <v>       0.12390544       0.63210312       0.12694734 </v>
   <v>       0.13109220       0.87279491       0.37238615 </v>
   <v>       0.37133643       0.62357024       0.37460426 </v>
   <v>       0.37245018       0.87008082       0.12646154 </v>
   <v>       0.12741929       0.62636339       0.62203181 </v>
   <v>       0.12275146       0.87308958       0.87526180 </v>
   <v>       0.37536688       0.62547587       0.86837655 </v>
   <v>       0.37308183       0.87663900       0.62443107 </v>
   <v>       0.62584350       0.12243271       0.12613199 </v>
   <v>       0.62627600       0.37057164       0.37845891 </v>
   <v>       0.87078574       0.12326965       0.37852561 </v>
   <v>       0.87656848       0.38082900       0.12738465 </v>
   <v>       0.62349812       0.12575110       0.62786018 </v>
   <v>       0.62447553       0.37702234       0.87250376 </v>
   <v>       0.87405926       0.12497490       0.87145950 </v>
   <v>       0.87542950       0.37321433       0.62465467 </v>
   <v>       0.62728251       0.62773984       0.12433729 </v>
   <v>       0.62231655       0.87675862       0.37911967 </v>
   <v>       0.87817360       0.62397955       0.37478278 </v>
   <v>       0.87051095       0.87636197       0.12131104 </v>
   <v>       0.62460136       0.62383839       0.62425439 </v>
   <v>       0.62713483       0.87356929       0.87460340 </v>
   <v>       0.87425876       0.61905066       0.87591711 </v>
   <v>       0.87250093       0.87293107       0.63554651 </v>
   <v>       0.00642123       0.99689758       0.00190996 </v>
   <v>       0.99874132       0.25177121       0.24759396 </v>
   <v>       0.24298952       0.00158960       0.25049092 </v>
   <v>       0.25006130       0.24538340       0.99882381 </v>
   <v>       0.99378505       0.99627820       0.49544159 </v>
   <v>       0.00333581       0.25297270       0.74815473 </v>
   <v>       0.25451063       0.99938331       0.74618978 </v>
   <v>       0.24313724       0.24755456       0.50442269 </v>
   <v>       0.00202011       0.50268012       0.00036083 </v>
   <v>       0.99890740       0.74640596       0.24790388 </v>
   <v>       0.25087956       0.49770114       0.25128950 </v>
   <v>       0.25730751       0.75384764       0.99883209 </v>
   <v>       0.99965899       0.49914264       0.49924957 </v>
   <v>       0.99411611       0.74592888       0.74869677 </v>
   <v>       0.25351435       0.50105210       0.75017671 </v>
   <v>       0.25303843       0.75460527       0.49848618 </v>
   <v>       0.50690738       0.00423585       0.00007965 </v>
   <v>       0.50020485       0.25183319       0.24676317 </v>
   <v>       0.74724919       0.99610256       0.24521283 </v>
   <v>       0.74885378       0.24753328       0.00137138 </v>
   <v>       0.50106919       0.00139183       0.50059668 </v>
   <v>       0.50038069       0.25122288       0.75458903 </v>
   <v>       0.75220948       0.99775507       0.74941390 </v>
   <v>       0.74988545       0.24388525       0.50664621 </v>
   <v>       0.49921186       0.50005169       0.00220620 </v>
   <v>       0.49509819       0.75010160       0.24611680 </v>
   <v>       0.74658344       0.50171620       0.24618529 </v>
   <v>       0.75039224       0.75352110       0.00279357 </v>
   <v>       0.50113369       0.49930506       0.49834063 </v>
   <v>       0.50700967       0.74868126       0.74686109 </v>
   <v>       0.75163054       0.50151014       0.74817665 </v>
   <v>       0.75339889       0.75015854       0.49686007 </v>
  </varray>
 </structure>
 <calculation>
  <scstep>
   <time name="dav">   15.96   16.01</time>
   <time name="total">   16.30   16.34</time>
   <energy>
    <i name="alphaZ">    354.85177120 </i>
    <i name="ewald">  -9079.85831619 </i>
    <i name="hartreedc">   -672.37424396 </i>
    <i name="XCdc">    145.85569730 </i>
    <i name="pawpsdc">   6292.66707184 </i>
    <i name="pawaedc">  -5747.90303932 </i>
    <i name="eentropy">      0.01322804 </i>
    <i name="bandstr">   1370.31551541 </i>
    <i name="atom">   8006.17504320 </i>
    <i name="e_fr_energy">    669.74272753 </i>
    <i name="e_wo_entrp">    669.72949949 </i>
    <i name="e_0_energy">    669.73831818 </i>
   </energy>
  </scstep>
  <scstep>
   <time name="dav">   16.33   16.75</time>
   <time name="total">   16.33   16.76</time>
   <energy>
    <i name="e_fr_energy">   -461.85977944 </i>
    <i name="e_wo_entrp">   -461.87593100 </i>
    <i name="e_0_energy">   -461.86516329 </i>
   </energy>
  </scstep>
  <scstep>
   <time name="dav">   15.05   15.08</time>
   <time name="total">   15.06   15.09</time>
   <energy>
    <i name="e_fr_energy">   -537.20707264 </i>
    <i name="e_wo_entrp">   -537.22960116 </i>
    <i name="e_0_energy">   -537.21458215 </i>
   </energy>
  </scstep>
  <scstep>
   <time name="dav">   15.02   15.05</time>
   <time name="total">   15.02   15.05</time>
   <energy>
    <i name="e_fr_energy">   -538.87846768 </i>
    <i name="e_wo_entrp">   -538.90138412 </i>
    <i name="e_0_energy">   -538.88610649 </i>
   </energy>
  </scstep>
  <scstep>
   <time name="dav">   14.80   14.83</time>
   <time name="total">   15.04   15.07</time>
   <energy>
    <i name="e_fr_energy">   -538.92421141 </i>
    <i name="e_wo_entrp">   -538.94715552 </i>
    <i name="e_0_energy">   -538.93185945 </i>
   </energy>
  </scstep>
  <scstep>
   <time name="dav">   14.26   14.29</time>
   <time name="total">   14.71   14.89</time>
   <energy>
    <i name="e_fr_energy">   -482.07847088 </i>
    <i name="e_wo_entrp">   -482.08970838 </i>
    <i name="e_0_energy">   -482.08221672 </i>
   </energy>
  </scstep>
  <scstep>
   <time name="dav">   15.76   15.89</time>
   <time name="total">   16.14   16.27</time>
   <energy>
    <i name="e_fr_energy">   -480.73665454 </i>
    <i name="e_wo_entrp">   -480.74669845 </i>
    <i name="e_0_energy">   -480.74000251 </i>
   </energy>
  </scstep>
  <scstep>
   <time name="dav">   14.49   14.52</time>
   <time name="total">   14.84   14.87</time>
   <energy>
    <i name="e_fr_energy">   -480.50619575 </i>
    <i name="e_wo_entrp">   -480.51643696 </i>
    <i name="e_0_energy">   -480.50960949 </i>
   </energy>
  </scstep>
  <scstep>
   <time name="dav">   14.79   14.81</time>
   <time name="total">   15.17   15.20</time>
   <energy>
    <i name="e_fr_energy">   -480.48993757 </i>
    <i name="e_wo_entrp">   -480.50006510 </i>
    <i name="e_0_energy">   -480.49331341 </i>
   </energy>
  </scstep>
  <scstep>
   <time name="dav">   15.27   15.30</time>
   <time name="total">   15.66   15.75</time>
   <energy>
    <i name="e_fr_energy">   -480.49289541 </i>
    <i name="e_wo_entrp">   -480.50302216 </i>
    <i name="e_0_energy">   -480.49627099 </i>
   </energy>
  </scstep>
  <scstep>
   <time name="dav">   14.14   14.17</time>
   <time name="total">   14.53   14.56</time>
   <energy>
    <i name="e_fr_energy">   -480.49395840 </i>
    <i name="e_wo_entrp">   -480.50408561 </i>
    <i name="e_0_energy">   -480.49733414 </i>
   </energy>
  </scstep>
  <scstep>
   <time name="dav">   16.16   16.20</time>
   <time name="total">   16.55   16.59</time>
   <energy>
    <i name="e_fr_energy">   -480.49402216 </i>
    <i name="e_wo_entrp">   -480.50414587 </i>
    <i name="e_0_energy">   -480.49739673 </i>
   </energy>
  </scstep>
  <scstep>
   <time name="dav">   13.98   14.01</time>
   <time name="total">   14.37   14.40</time>
   <energy>
    <i name="e_fr_energy">   -480.49403650 </i>
    <i name="e_wo_entrp">   -480.50416222 </i>
    <i name="e_0_energy">   -480.49741174 </i>
   </energy>
  </scstep>
  <scstep>
   <time name="dav">   14.99   15.02</time>
   <time name="total">   15.37   15.47</time>
   <energy>
    <i name="e_fr_energy">   -480.49404195 </i>
    <i name="e_wo_entrp">   -480.50416739 </i>
    <i name="e_0_energy">   -480.49741709 </i>
   </energy>
  </scstep>
  <scstep>
   <time name="dav">   15.34   15.37</time>
   <time name="total">   15.72   15.75</time>
   <energy>
    <i name="e_fr_energy">   -480.49404367 </i>
    <i name="e_wo_entrp">   -480.50416892 </i>
    <i name="e_0_energy">   -480.49741876 </i>
   </energy>
  </scstep>
  <scstep>
   <time name="dav">   15.67   15.70</time>
   <time name="total">   16.05   16.08</time>
   <energy>
    <i name="e_fr_energy">   -480.49404348 </i>
    <i name="e_wo_entrp">   -480.50416885 </i>
    <i name="e_0_energy">   -480.49741861 </i>
   </energy>
  </scstep>
  <scstep>
   <time name="dav">   14.12   14.15</time>
   <time name="total">   14.50   14.53</time>
   <energy>
    <i name="e_fr_energy">   -480.49404386 </i>
    <i name="e_wo_entrp">   -480.50416917 </i>
    <i name="e_0_energy">   -480.49741896 </i>
   </energy>
  </scstep>
  <scstep>
   <time name="dav">    9.14    9.16</time>
   <time name="total">    9.76   10.01</time>
   <energy>
    <i name="e_fr_energy">   -480.49404387 </i>
    <i name="e_wo_entrp">   -480.50416917 </i>
    <i name="e_0_energy">   -480.49741897 </i>
   </energy>
  </scstep>
  <scstep>
   <time name="dav">    8.97    8.99</time>
   <time name="total">    9.35    9.37</time>
   <energy>
    <i name="e_fr_energy">   -480.49404384 </i>
    <i name="e_wo_entrp">   -480.50416913 </i>
    <i name="e_0_energy">   -480.49741894 </i>
   </energy>
  </scstep>
  <scstep>
   <time name="dav">    8.93    8.95</time>
   <time name="total">    9.31    9.33</time>
   <energy>
    <i name="e_fr_energy">   -480.49404386 </i>
    <i name="e_wo_entrp">   -480.50416915 </i>
    <i name="e_0_energy">   -480.49741895 </i>
   </energy>
  </scstep>
  <scstep>
   <time name="dav">    8.94    8.95</time>
   <time name="total">    8.99    9.01</time>
   <energy>
    <i name="alphaZ">    354.85177120 </i>
    <i name="ewald">  -9079.85831619 </i>
    <i name="hartreedc">  -1025.24055489 </i>
    <i name="XCdc">    179.29415252 </i>
    <i name="pawpsdc">  33092.64505041 </i>
    <i name="pawaedc"> -32553.59848925 </i>
    <i name="eentropy">      0.01012529 </i>
    <i name="bandstr">    545.22717385 </i>
    <i name="atom">   8006.17504320 </i>
    <i name="e_fr_energy">   -480.49404385 </i>
    <i name="e_wo_entrp">   -480.50416914 </i>
    <i name="e_0_energy">   -480.49741895 </i>
   </energy>
  </scstep>
  <structure>
   <crystal>
    <varray name="basis" >
     <v>       8.74331558       0.00000000       0.00000000 </v>
     <v>       0.00000000       8.74331558       0.00000000 </v>
     <v>       0.00000000       0.00000000       8.74331558 </v>
    </varray>
    <i name="volume">    668.38771987 </i>
    <varray name="rec_basis" >
     <v>       0.11437309       0.00000000       0.00000000 </v>
     <v>       0.00000000       0.11437309       0.00000000 </v>
     <v>       0.00000000       0.00000000       0.11437309 </v>
    </varray>
   </crystal>
   <varray name="positions" >
    <v>       0.12146901       0.12690591       0.12112512 </v>
    <v>       0.12516724       0.37597315       0.37577829 </v>
    <v>       0.37804532       0.12481087       0.37381527 </v>
    <v>       0.37177849       0.37111036       0.12229774 </v>
    <v>       0.12360349       0.12435766       0.62737649 </v>
    <v>       0.12673483       0.37839559       0.87795708 </v>
    <v>       0.37605274       0.12491970       0.87809680 </v>
    <v>       0.37652388       0.37215694       0.62592560 </v>
    <v>       0.12390544       0.63210312       0.12694734 </v>
    <v>       0.13109220       0.87279491       0.37238615 </v>
    <v>       0.37133643       0.62357024       0.37460426 </v>
    <v>       0.37245018       0.87008082       0.12646154 </v>
    <v>       0.12741929       0.62636339       0.62203181 </v>
    <v>       0.12275146       0.87308958       0.87526180 </v>
    <v>       0.37536688       0.62547587       0.86837655 </v>
    <v>       0.37308183       0.87663900       0.62443107 </v>
    <v>       0.62584350       0.12243271       0.12613199 </v>
    <v>       0.62627600       0.37057164       0.37845891 </v>
    <v>       0.87078574       0.12326965       0.37852561 </v>
    <v>       0.87656848       0.38082900       0.12738465 </v>
    <v>       0.62349812       0.12575110       0.62786018 </v>
    <v>       0.62447553       0.37702234       0.87250376 </v>
    <v>       0.87405926       0.12497490       0.87145950 </v>
    <v>       0.87542950       0.37321433       0.62465467 </v>
    <v>       0.62728251       0.62773984       0.12433729 </v>
    <v>       0.62231655       0.87675862       0.37911967 </v>
    <v>       0.87817360       0.62397955       0.37478278 </v>
    <v>       0.87051095       0.87636197       0.12131104 </v>
    <v>       0.62460136       0.62383839       0.62425439 </v>
    <v>       0.62713483       0.87356929       0.87460340 </v>
    <v>       0.87425876       0.61905066       0.87591711 </v>
    <v>       0.87250093       0.87293107       0.63554651 </v>
    <v>       0.00642123       0.99689758       0.00190996 </v>
    <v>       0.99874132       0.25177121       0.24759396 </v>
    <v>       0.24298952       0.00158960       0.25049092 </v>
    <v>       0.25006130       0.24538340       0.99882381 </v>
    <v>       0.99378505       0.99627820       0.49544159 </v>
    <v>       0.00333581       0.25297270       0.74815473 </v>
    <v>       0.25451063       0.99938331       0.74618978 </v>
    <v>       0.24313724       0.24755456       0.50442269 </v>
    <v>       0.00202011       0.50268012       0.00036083 </v>
    <v>       0.99890740       0.74640596       0.24790388 </v>
    <v>       0.25087956       0.49770114       0.25128950 </v>
    <v>       0.25730751       0.75384764       0.99883209 </v>
    <v>       0.99965899       0.49914264       0.49924957 </v>
    <v>       0.99411611       0.74592888       0.74869677 </v>
    <v>       0.25351435       0.50105210       0.75017671 </v>
    <v>       0.25303843       0.75460527       0.49848618 </v>
    <v>       0.50690738       0.00423585       0.00007965 </v>
    <v>       0.50020485       0.25183319       0.24676317 </v>
    <v>       0.74724919       0.99610256       0.24521283 </v>
    <v>       0.74885378       0.24753328       0.00137138 </v>
    <v>       0.50106919       0.00139183       0.50059668 </v>
    <v>       0.50038069       0.25122288       0.75458903 </v>
    <v>       0.75220948       0.99775507       0.74941390 </v>
    <v>       0.74988545       0.24388525       0.50664621 </v>
    <v>       0.49921186       0.50005169       0.00220620 </v>
    <v>       0.49509819       0.75010160       0.24611680 </v>
    <v>       0.74658344       0.50171620       0.24618529 </v>
    <v>       0.75039224       0.75352110       0.00279357 </v>
    <v>       0.50113369       0.49930506       0.49834063 </v>
    <v>       0.50700967       0.74868126       0.74686109 </v>
    <v>       0.75163054       0.50151014       0.74817665 </v>
    <v>       0.75339889       0.75015854       0.49686007 </v>
   </varray>
  </structure>
  <varray name="forces" >
   <v>       0.36644089      -0.26195870       0.91542523 </v>
   <v>      -0.23807305      -0.63258905      -0.19261018 </v>
   <v>      -1.05424697       0.15337151      -0.03873931 </v>
   <v>       0.52487400       0.65468773       0.37275416 </v>
   <v>      -0.19898751      -0.53823437      -0.50155341 </v>
   <v>       0.15755234      -0.51551390      -0.45306016 </v>
   <v>       0.17010038      -0.38119308      -0.47303447 </v>
   <v>      -0.39369393       0.24542997      -0.06673347 </v>
   <v>       0.94291707      -1.37574450      -0.85211067 </v>
   <v>      -2.04901367       0.39445628       0.29469715 </v>
   <v>       0.98985445       0.09221567      -0.02855116 </v>
   <v>       0.68937622       2.03080369      -0.37566116 </v>
   <v>      -0.46372778      -0.07253855       0.25951164 </v>
   <v>       0.85931301      -0.01257709      -0.42011388 </v>
   <v>       0.75945304       0.33002860       1.26691794 </v>
   <v>       1.26659420      -0.31186308      -0.12055183 </v>
   <v>       0.02418127       0.81959122      -0.10469750 </v>
   <v>       0.05385577       0.61726539      -0.82787084 </v>
   <v>       0.33907075      -0.19293297      -1.23986533 </v>
   <v>      -0.48136691      -0.92175426      -0.59140045 </v>
   <v>       0.04600585      -0.63110191       0.33357868 </v>
   <v>       0.24521195      -0.16823205       0.95312537 </v>
   <v>       0.64426147       0.04950391       0.80370535 </v>
   <v>       0.07150307       0.38365705      -0.07375357 </v>
   <v>      -0.92243627      -0.13197224       0.10922418 </v>
   <v>       0.44493842      -0.69614667      -1.11047594 </v>
   <v>      -0.75903699       0.18956426      -0.23922639 </v>
   <v>       1.26039621      -0.18050375       0.89717226 </v>
   <v>       0.71777184       0.08543260      -0.65083188 </v>
   <v>      -0.13525501       0.32521080       0.08397470 </v>
   <v>      -0.16934323       1.10260424       0.07039658 </v>
   <v>       0.29236736      -0.14317010      -2.58742745 </v>
   <v>      -1.59444592       0.45158192      -1.20811076 </v>
   <v>      -0.24192584       0.01883978       0.81726503 </v>
   <v>       1.62567367       0.14532549      -0.29670685 </v>
   <v>      -0.32980688       0.86655591      -0.20871637 </v>
   <v>       1.12860507      -0.07421765       1.19283987 </v>
   <v>      -0.56545053      -0.30404842       0.88705828 </v>
   <v>      -1.16599141       0.02104926       1.11239518 </v>
   <v>       1.52499792       0.33801115      -0.84941738 </v>
   <v>       0.13300078      -0.06810596       0.28902886 </v>
   <v>       0.10580621       0.97818103       0.38861488 </v>
   <v>      -0.64864279       0.44795324      -0.35718286 </v>
   <v>      -1.51370254      -0.90517302      -0.65302969 </v>
   <v>       0.34341050       0.09745524       0.18124039 </v>
   <v>       1.53557995      -0.10653382       0.76083027 </v>
   <v>      -0.56238154      -0.22840139      -0.51655772 </v>
   <v>      -0.40737313      -1.02947117       0.26417263 </v>
   <v>      -1.36731192      -1.38289359      -0.10646306 </v>
   <v>      -0.10139880      -0.49526812       0.96643796 </v>
   <v>       0.12770980       0.48238460       1.45092424 </v>
   <v>       0.72597152       0.74255435      -0.65655553 </v>
   <v>      -0.42471095       0.26037170       0.06153408 </v>
   <v>      -0.12998701      -0.06068888      -0.65552294 </v>
   <v>      -0.70970686       0.86756319       0.68194621 </v>
   <v>      -0.14770175       0.92195844      -0.74696680 </v>
   <v>      -0.01451422       0.14387358      -0.99361111 </v>
   <v>       0.69779818      -0.22529025       1.28033156 </v>
   <v>       0.58667896      -0.43880172       1.29741485 </v>
   <v>      -0.01153756      -1.02719184      -1.23252696 </v>
   <v>      -0.42675841      -0.35546796       0.23383939 </v>
   <v>      -1.20853793       0.38223470       0.33750476 </v>
   <v>      -0.33703421      -0.67784594       0.19349101 </v>
   <v>      -0.62717060      -0.09229049       0.67228440 </v>
  </varray>
  <varray name="stress" >
   <v>       5.10192200      -4.70759179       0.59560798 </v>
   <v>      -4.70759179       5.96890153       4.80012576 </v>
   <v>       0.59560801       4.80012570       5.35608413 </v>
  </varray>
  <energy>
   <i name="e_fr_energy">   -480.49404385 </i>
   <i name="e_wo_entrp">   -480.50416914 </i>
   <i name="e_0_energy">   -480.49741895 </i>
  </energy>
  <time name="totalsc">  310.37  312.03</time>
  <eigenvalues>
   <array>
    <dimension dim="1">band</dimension>
    <dimension dim="2">kpoint</dimension>
    <dimension dim="3">spin</dimension>
    <field>eigene</field>
    <field>occ</field>
    <set>
     <set comment="spin 1">
      <set comment="kpoint 1">
       <r>   -7.3489    1.0000 </r>
       <r>   -5.8517    1.0000 </r>
       <r>   -5.8246    1.0000 </r>
       <r>   -5.7983    1.0000 </r>
       <r>   -5.7555    1.0000 </r>
       <r>   -5.7214    1.0000 </r>
       <r>   -5.6521    1.0000 </r>
       <r>   -4.5350    1.0000 </r>
       <r>   -4.4857    1.0000 </r>
       <r>   -4.4419    1.0000 </r>
       <r>   -4.4213    1.0000 </r>
       <r>   -4.3921    1.0000 </r>
       <r>   -4.3667    1.0000 </r>
       <r>   -4.3355    1.0000 </r>
       <r>   -4.3155    1.0000 </r>
       <r>   -4.2944    1.0000 </r>
       <r>   -4.2509    1.0000 </r>
       <r>   -4.1816    1.0000 </r>
       <r>   -4.1584    1.0000 </r>
       <r>   -3.8504    1.0000 </r>
       <r>   -3.8284    1.0000 </r>
       <r>   -3.7391    1.0000 </r>
       <r>   -3.7358    1.0000 </r>
       <r>   -2.4765    1.0000 </r>
       <r>   -2.3781    1.0000 </r>
       <r>   -2.3071    1.0000 </r>
       <r>   -2.2094    1.0000 </r>
       <r>   -2.1992    1.0000 </r>
       <r>   -2.1388    1.0000 </r>
       <r>   -2.0956    1.0000 </r>
       <r>   -2.0727    1.0000 </r>
       <r>   -2.0003    1.0000 </r>
       <r>   -0.5593    1.0000 </r>
       <r>   -0.5335    1.0000 </r>
       <r>   -0.4639    1.0000 </r>
       <r>   -0.4137    1.0000 </r>
       <r>    0.2168    1.0000 </r>
       <r>    0.2290    1.0000 </r>
       <r>    0.2438    1.0000 </r>
       <r>    0.9443    1.0000 </r>
       <r>    0.9606    1.0000 </r>
       <r>    0.9808    1.0000 </r>
       <r>    0.9887    1.0000 </r>
       <r>    0.9997    1.0000 </r>
       <r>    1.0248    1.0000 </r>
       <r>    1.9356    1.0000 </r>
       <r>    1.9578    1.0000 </r>
       <r>    1.9854    1.0000 </r>
       <r>    2.0260    1.0000 </r>
       <r>    2.0275    1.0000 </r>
       <r>    2.0584    1.0000 </r>
       <r>    2.0659    1.0000 </r>
       <r>    2.1120    1.0000 </r>
       <r>    2.1199    1.0000 </r>
       <r>    2.1591    1.0000 </r>
       <r>    2.1748    1.0000 </r>
       <r>    2.2193    1.0000 </r>
       <r>    2.9656    1.0000 </r>
       <r>    3.0064    1.0000 </r>
       <r>    3.0275    1.0000 </r>
       <r>    3.0454    1.0000 </r>
       <r>    3.0912    1.0000 </r>
       <r>    3.1093    1.0000 </r>
       <r>    3.2811    1.0000 </r>
       <r>    3.3063    1.0000 </r>
       <r>    3.3268    1.0000 </r>
       <r>    3.3512    1.0000 </r>
       <r>    3.3635    1.0000 </r>
       <r>    3.3804    1.0000 </r>
       <r>    3.5966    1.0000 </r>
       <r>    3.6067    1.0000 </r>
       <r>    3.6300    1.0000 </r>
       <r>    3.6376    1.0000 </r>
       <r>    3.6557    1.0000 </r>
       <r>    3.6753    1.0000 </r>
       <r>    3.6943    1.0000 </r>
       <r>    3.7394    1.0000 </r>
       <r>    3.7637    1.0000 </r>
       <r>    3.7729    1.0000 </r>
       <r>    3.7830    1.0000 </r>
       <r>    3.8072    1.0000 </r>
       <r>    4.5672    1.0000 </r>
       <r>    4.5807    1.0000 </r>
       <r>    4.6341    1.0000 </r>
       <r>    4.6483    1.0000 </r>
       <r>    4.6785    1.0000 </r>
       <r>    4.7151    1.0000 </r>
       <r>    4.8007    1.0000 </r>
       <r>    4.8308    1.0000 </r>
       <r>    4.8502    1.0000 </r>
       <r>    4.8662    1.0000 </r>
       <r>    4.8692    1.0000 </r>
       <r>    4.9016    1.0000 </r>
       <r>    5.9332    1.0000 </r>
       <r>    5.9584    1.0000 </r>
       <r>    5.9923    1.0000 </r>
       <r>    5.9995    1.0000 </r>
       <r>    6.0346    1.0000 </r>
       <r>    6.0550    1.0000 </r>
       <r>    6.0718    1.0000 </r>
       <r>    6.0936    1.0000 </r>
       <r>    6.1206    1.0000 </r>
       <r>    6.1713    1.0000 </r>
       <r>    6.1835    1.0000 </r>
       <r>    6.2309    1.0000 </r>
       <r>    6.6377    1.0000 </r>
       <r>    6.6910    1.0000 </r>
       <r>    6.7204    1.0000 </r>
       <r>    6.7469    1.0000 </r>
       <r>    6.7804    1.0000 </r>
       <r>    6.7935    1.0000 </r>
       <r>    6.8139    1.0000 </r>
       <r>    6.8340    1.0000 </r>
       <r>    6.8589    1.0000 </r>
       <r>    6.8714    1.0000 </r>
       <r>    6.9021    1.0000 </r>
       <r>    6.9313    1.0000 </r>
       <r>    6.9721    1.0000 </r>
       <r>    6.9960    1.0000 </r>
       <r>    7.0064    1.0000 </r>
       <r>    7.0180    1.0000 </r>
       <r>    7.0403    1.0000 </r>
       <r>    7.0581    1.0000 </r>
       <r>    7.0669    1.0000 </r>
       <r>    7.0996    1.0000 </r>
       <r>    7.9949    1.0091 </r>
       <r>    8.0392    0.9474 </r>
       <r>    8.0867    0.8283 </r>
       <r>    9.2685   -0.0000 </r>
       <r>    9.3505   -0.0000 </r>
       <r>    9.4394   -0.0000 </r>
       <r>   11.8780   -0.0000 </r>
       <r>   11.9385   -0.0000 </r>
       <r>   11.9784   -0.0000 </r>
       <r>   12.0206   -0.0000 </r>
       <r>   12.0382   -0.0000 </r>
       <r>   12.0867   -0.0000 </r>
       <r>   12.2341   -0.0000 </r>
       <r>   12.2858   -0.0000 </r>
       <r>   12.3041   -0.0000 </r>
       <r>   12.9848   -0.0000 </r>
       <r>   13.0467   -0.0000 </r>
       <r>   13.1115   -0.0000 </r>
       <r>   13.1535   -0.0000 </r>
       <r>   13.1782   -0.0000 </r>
       <r>   13.2040   -0.0000 </r>
       <r>   13.2786   -0.0000 </r>
       <r>   13.3001   -0.0000 </r>
       <r>   13.3026   -0.0000 </r>
       <r>   13.3325   -0.0000 </r>
       <r>   13.3928   -0.0000 </r>
       <r>   13.4122   -0.0000 </r>
       <r>   13.4326   -0.0000 </r>
       <r>   13.4424   -0.0000 </r>
       <r>   13.4561   -0.0000 </r>
       <r>   13.4988   -0.0000 </r>
       <r>   13.5355   -0.0000 </r>
       <r>   13.5475   -0.0000 </r>
       <r>   13.5599   -0.0000 </r>
       <r>   13.5817   -0.0000 </r>
       <r>   13.5999   -0.0000 </r>
       <r>   13.6502    0.0000 </r>
       <r>   14.0793    0.0000 </r>
       <r>   14.1456    0.0000 </r>
       <r>   14.2537    0.0000 </r>
       <r>   14.2731    0.0000 </r>
       <r>   14.3025    0.0000 </r>
       <r>   14.3405    0.0000 </r>
      </set>
      <set comment="kpoint 2">
       <r>   -7.1712    1.0000 </r>
       <r>   -6.6358    1.0000 </r>
       <r>   -5.6816    1.0000 </r>
       <r>   -5.6266    1.0000 </r>
       <r>   -5.5941    1.0000 </r>
       <r>   -5.5257    1.0000 </r>
       <r>   -5.1870    1.0000 </r>
       <r>   -5.1281    1.0000 </r>
       <r>   -5.1049    1.0000 </r>
       <r>   -5.0278    1.0000 </r>
       <r>   -4.5964    1.0000 </r>
       <r>   -4.3526    1.0000 </r>
       <r>   -4.2998    1.0000 </r>
       <r>   -4.1828    1.0000 </r>
       <r>   -4.1383    1.0000 </r>
       <r>   -4.0568    1.0000 </r>
       <r>   -3.9944    1.0000 </r>
       <r>   -3.9199    1.0000 </r>
       <r>   -3.8949    1.0000 </r>
       <r>   -3.4677    1.0000 </r>
       <r>   -3.3991    1.0000 </r>
       <r>   -3.3860    1.0000 </r>
       <r>   -3.3400    1.0000 </r>
       <r>   -3.1958    1.0000 </r>
       <r>   -2.6029    1.0000 </r>
       <r>   -2.5385    1.0000 </r>
       <r>   -2.5088    1.0000 </r>
       <r>   -2.4465    1.0000 </r>
       <r>   -2.3156    1.0000 </r>
       <r>   -2.2833    1.0000 </r>
       <r>   -2.1710    1.0000 </r>
       <r>   -2.1475    1.0000 </r>
       <r>   -0.1144    1.0000 </r>
       <r>   -0.0654    1.0000 </r>
       <r>   -0.0075    1.0000 </r>
       <r>    0.0508    1.0000 </r>
       <r>    0.3598    1.0000 </r>
       <r>    0.3791    1.0000 </r>
       <r>    0.6967    1.0000 </r>
       <r>    0.7326    1.0000 </r>
       <r>    0.9693    1.0000 </r>
       <r>    0.9906    1.0000 </r>
       <r>    1.0291    1.0000 </r>
       <r>    1.0601    1.0000 </r>
       <r>    1.0909    1.0000 </r>
       <r>    1.1266    1.0000 </r>
       <r>    1.1477    1.0000 </r>
       <r>    1.1742    1.0000 </r>
       <r>    1.2421    1.0000 </r>
       <r>    1.3517    1.0000 </r>
       <r>    1.4038    1.0000 </r>
       <r>    1.4502    1.0000 </r>
       <r>    1.4605    1.0000 </r>
       <r>    2.6529    1.0000 </r>
       <r>    2.6768    1.0000 </r>
       <r>    2.7035    1.0000 </r>
       <r>    2.7366    1.0000 </r>
       <r>    2.8717    1.0000 </r>
       <r>    2.9159    1.0000 </r>
       <r>    2.9289    1.0000 </r>
       <r>    2.9581    1.0000 </r>
       <r>    2.9871    1.0000 </r>
       <r>    3.0249    1.0000 </r>
       <r>    3.0498    1.0000 </r>
       <r>    3.0685    1.0000 </r>
       <r>    3.0946    1.0000 </r>
       <r>    3.5067    1.0000 </r>
       <r>    3.5267    1.0000 </r>
       <r>    3.6387    1.0000 </r>
       <r>    3.6609    1.0000 </r>
       <r>    3.9562    1.0000 </r>
       <r>    4.0173    1.0000 </r>
       <r>    4.0472    1.0000 </r>
       <r>    4.0738    1.0000 </r>
       <r>    4.3131    1.0000 </r>
       <r>    4.3374    1.0000 </r>
       <r>    4.3679    1.0000 </r>
       <r>    4.3962    1.0000 </r>
       <r>    4.4161    1.0000 </r>
       <r>    4.4266    1.0000 </r>
       <r>    4.4535    1.0000 </r>
       <r>    4.4866    1.0000 </r>
       <r>    4.5946    1.0000 </r>
       <r>    4.6315    1.0000 </r>
       <r>    4.6562    1.0000 </r>
       <r>    4.7106    1.0000 </r>
       <r>    4.7585    1.0000 </r>
       <r>    4.7967    1.0000 </r>
       <r>    4.8837    1.0000 </r>
       <r>    4.9004    1.0000 </r>
       <r>    4.9715    1.0000 </r>
       <r>    5.0117    1.0000 </r>
       <r>    5.3828    1.0000 </r>
       <r>    5.4150    1.0000 </r>
       <r>    5.5322    1.0000 </r>
       <r>    5.5907    1.0000 </r>
       <r>    5.6365    1.0000 </r>
       <r>    5.6827    1.0000 </r>
       <r>    5.8369    1.0000 </r>
       <r>    5.8780    1.0000 </r>
       <r>    5.9208    1.0000 </r>
       <r>    5.9316    1.0000 </r>
       <r>    6.1747    1.0000 </r>
       <r>    6.1987    1.0000 </r>
       <r>    6.2552    1.0000 </r>
       <r>    6.3134    1.0000 </r>
       <r>    6.3593    1.0000 </r>
       <r>    6.4261    1.0000 </r>
       <r>    6.4804    1.0000 </r>
       <r>    6.5241    1.0000 </r>
       <r>    6.5470    1.0000 </r>
       <r>    6.7327    1.0000 </r>
       <r>    6.7834    1.0000 </r>
       <r>    6.7869    1.0000 </r>
       <r>    6.8318    1.0000 </r>
       <r>    6.8456    1.0000 </r>
       <r>    6.8741    1.0000 </r>
       <r>    6.9071    1.0000 </r>
       <r>    6.9342    1.0000 </r>
       <r>    6.9681    1.0000 </r>
       <r>    6.9844    1.0000 </r>
       <r>    7.0032    1.0000 </r>
       <r>    7.0261    1.0000 </r>
       <r>    7.0609    1.0000 </r>
       <r>    7.0928    1.0000 </r>
       <r>    7.4966    1.0000 </r>
       <r>    7.6807    1.0014 </r>
       <r>    7.7337    1.0041 </r>
       <r>    9.6618   -0.0000 </r>
       <r>   10.1877   -0.0000 </r>
       <r>   10.2057   -0.0000 </r>
       <r>   10.6125   -0.0000 </r>
       <r>   11.9318   -0.0000 </r>
       <r>   11.9405   -0.0000 </r>
       <r>   12.4467   -0.0000 </r>
       <r>   12.5404   -0.0000 </r>
       <r>   12.6160   -0.0000 </r>
       <r>   12.6606   -0.0000 </r>
       <r>   12.7102   -0.0000 </r>
       <r>   12.8859   -0.0000 </r>
       <r>   12.9117   -0.0000 </r>
       <r>   12.9194   -0.0000 </r>
       <r>   13.0063   -0.0000 </r>
       <r>   13.0180   -0.0000 </r>
       <r>   13.0332   -0.0000 </r>
       <r>   13.0700   -0.0000 </r>
       <r>   13.0998   -0.0000 </r>
       <r>   13.1347   -0.0000 </r>
       <r>   13.1485   -0.0000 </r>
       <r>   13.2105   -0.0000 </r>
       <r>   13.4797   -0.0000 </r>
       <r>   13.5649   -0.0000 </r>
       <r>   13.5876   -0.0000 </r>
       <r>   13.6414    0.0000 </r>
       <r>   13.6560    0.0000 </r>
       <r>   13.6684    0.0000 </r>
       <r>   13.6839    0.0000 </r>
       <r>   13.7058    0.0000 </r>
       <r>   13.7329    0.0000 </r>
       <r>   13.8567    0.0000 </r>
       <r>   13.9637    0.0000 </r>
       <r>   14.0027    0.0000 </r>
       <r>   14.0653    0.0000 </r>
       <r>   14.4553    0.0000 </r>
       <r>   14.7147    0.0000 </r>
       <r>   14.7940    0.0000 </r>
       <r>   14.8375    0.0000 </r>
       <r>   14.9001    0.0000 </r>
      </set>
      <set comment="kpoint 3">
       <r>   -7.1710    1.0000 </r>
       <r>   -6.6345    1.0000 </r>
       <r>   -5.6813    1.0000 </r>
       <r>   -5.6442    1.0000 </r>
       <r>   -5.6085    1.0000 </r>
       <r>   -5.5047    1.0000 </r>
       <r>   -5.1854    1.0000 </r>
       <r>   -5.1407    1.0000 </r>
       <r>   -5.1005    1.0000 </r>
       <r>   -4.9923    1.0000 </r>
       <r>   -4.6090    1.0000 </r>
       <r>   -4.3597    1.0000 </r>
       <r>   -4.3024    1.0000 </r>
       <r>   -4.1820    1.0000 </r>
       <r>   -4.1647    1.0000 </r>
       <r>   -4.0205    1.0000 </r>
       <r>   -4.0108    1.0000 </r>
       <r>   -3.8991    1.0000 </r>
       <r>   -3.8887    1.0000 </r>
       <r>   -3.4835    1.0000 </r>
       <r>   -3.4280    1.0000 </r>
       <r>   -3.3942    1.0000 </r>
       <r>   -3.2882    1.0000 </r>
       <r>   -3.2240    1.0000 </r>
       <r>   -2.5969    1.0000 </r>
       <r>   -2.5673    1.0000 </r>
       <r>   -2.5149    1.0000 </r>
       <r>   -2.4021    1.0000 </r>
       <r>   -2.3106    1.0000 </r>
       <r>   -2.2794    1.0000 </r>
       <r>   -2.1727    1.0000 </r>
       <r>   -2.1580    1.0000 </r>
       <r>   -0.1086    1.0000 </r>
       <r>   -0.0706    1.0000 </r>
       <r>    0.0017    1.0000 </r>
       <r>    0.0453    1.0000 </r>
       <r>    0.3669    1.0000 </r>
       <r>    0.3707    1.0000 </r>
       <r>    0.7150    1.0000 </r>
       <r>    0.7246    1.0000 </r>
       <r>    0.9710    1.0000 </r>
       <r>    0.9873    1.0000 </r>
       <r>    1.0255    1.0000 </r>
       <r>    1.0480    1.0000 </r>
       <r>    1.0730    1.0000 </r>
       <r>    1.1148    1.0000 </r>
       <r>    1.1456    1.0000 </r>
       <r>    1.1692    1.0000 </r>
       <r>    1.2417    1.0000 </r>
       <r>    1.3676    1.0000 </r>
       <r>    1.4076    1.0000 </r>
       <r>    1.4396    1.0000 </r>
       <r>    1.4871    1.0000 </r>
       <r>    2.6344    1.0000 </r>
       <r>    2.6871    1.0000 </r>
       <r>    2.7156    1.0000 </r>
       <r>    2.7325    1.0000 </r>
       <r>    2.8924    1.0000 </r>
       <r>    2.9070    1.0000 </r>
       <r>    2.9316    1.0000 </r>
       <r>    2.9601    1.0000 </r>
       <r>    2.9895    1.0000 </r>
       <r>    3.0142    1.0000 </r>
       <r>    3.0532    1.0000 </r>
       <r>    3.0690    1.0000 </r>
       <r>    3.1003    1.0000 </r>
       <r>    3.5103    1.0000 </r>
       <r>    3.5175    1.0000 </r>
       <r>    3.6464    1.0000 </r>
       <r>    3.6516    1.0000 </r>
       <r>    3.9589    1.0000 </r>
       <r>    3.9993    1.0000 </r>
       <r>    4.0508    1.0000 </r>
       <r>    4.0913    1.0000 </r>
       <r>    4.3201    1.0000 </r>
       <r>    4.3432    1.0000 </r>
       <r>    4.3606    1.0000 </r>
       <r>    4.3871    1.0000 </r>
       <r>    4.4013    1.0000 </r>
       <r>    4.4253    1.0000 </r>
       <r>    4.4496    1.0000 </r>
       <r>    4.4918    1.0000 </r>
       <r>    4.6055    1.0000 </r>
       <r>    4.6436    1.0000 </r>
       <r>    4.6578    1.0000 </r>
       <r>    4.7180    1.0000 </r>
       <r>    4.7391    1.0000 </r>
       <r>    4.7813    1.0000 </r>
       <r>    4.8635    1.0000 </r>
       <r>    4.9156    1.0000 </r>
       <r>    4.9972    1.0000 </r>
       <r>    5.0091    1.0000 </r>
       <r>    5.3920    1.0000 </r>
       <r>    5.4132    1.0000 </r>
       <r>    5.5179    1.0000 </r>
       <r>    5.5890    1.0000 </r>
       <r>    5.6284    1.0000 </r>
       <r>    5.6872    1.0000 </r>
       <r>    5.8434    1.0000 </r>
       <r>    5.8758    1.0000 </r>
       <r>    5.8980    1.0000 </r>
       <r>    5.9598    1.0000 </r>
       <r>    6.1496    1.0000 </r>
       <r>    6.1940    1.0000 </r>
       <r>    6.2355    1.0000 </r>
       <r>    6.3313    1.0000 </r>
       <r>    6.3659    1.0000 </r>
       <r>    6.4288    1.0000 </r>
       <r>    6.4501    1.0000 </r>
       <r>    6.4977    1.0000 </r>
       <r>    6.5644    1.0000 </r>
       <r>    6.7649    1.0000 </r>
       <r>    6.7868    1.0000 </r>
       <r>    6.8131    1.0000 </r>
       <r>    6.8346    1.0000 </r>
       <r>    6.8692    1.0000 </r>
       <r>    6.8767    1.0000 </r>
       <r>    6.9165    1.0000 </r>
       <r>    6.9346    1.0000 </r>
       <r>    6.9492    1.0000 </r>
       <r>    6.9890    1.0000 </r>
       <r>    7.0048    1.0000 </r>
       <r>    7.0156    1.0000 </r>
       <r>    7.0466    1.0000 </r>
       <r>    7.0932    1.0000 </r>
       <r>    7.4985    1.0000 </r>
       <r>    7.7003    1.0021 </r>
       <r>    7.7059    1.0024 </r>
       <r>    9.6587   -0.0000 </r>
       <r>   10.1813   -0.0000 </r>
       <r>   10.2045   -0.0000 </r>
       <r>   10.6191   -0.0000 </r>
       <r>   11.9476   -0.0000 </r>
       <r>   11.9552   -0.0000 </r>
       <r>   12.4597   -0.0000 </r>
       <r>   12.5425   -0.0000 </r>
       <r>   12.6007   -0.0000 </r>
       <r>   12.6269   -0.0000 </r>
       <r>   12.6800   -0.0000 </r>
       <r>   12.8563   -0.0000 </r>
       <r>   12.8709   -0.0000 </r>
       <r>   12.9281   -0.0000 </r>
       <r>   12.9880   -0.0000 </r>
       <r>   13.0238   -0.0000 </r>
       <r>   13.0430   -0.0000 </r>
       <r>   13.0931   -0.0000 </r>
       <r>   13.1004   -0.0000 </r>
       <r>   13.1586   -0.0000 </r>
       <r>   13.1983   -0.0000 </r>
       <r>   13.2143   -0.0000 </r>
       <r>   13.4718   -0.0000 </r>
       <r>   13.5700   -0.0000 </r>
       <r>   13.6058   -0.0000 </r>
       <r>   13.6152   -0.0000 </r>
       <r>   13.6458    0.0000 </r>
       <r>   13.6693    0.0000 </r>
       <r>   13.6989    0.0000 </r>
       <r>   13.7145    0.0000 </r>
       <r>   13.7374    0.0000 </r>
       <r>   13.9050    0.0000 </r>
       <r>   13.9514    0.0000 </r>
       <r>   13.9650    0.0000 </r>
       <r>   14.0613    0.0000 </r>
       <r>   14.4540    0.0000 </r>
       <r>   14.7266    0.0000 </r>
       <r>   14.7462    0.0000 </r>
       <r>   14.8291    0.0000 </r>
       <r>   14.8732    0.0000 </r>
      </set>
      <set comment="kpoint 4">
       <r>   -7.1713    1.0000 </r>
       <r>   -6.6353    1.0000 </r>
       <r>   -5.6766    1.0000 </r>
       <r>   -5.6125    1.0000 </r>
       <r>   -5.5860    1.0000 </r>
       <r>   -5.5601    1.0000 </r>
       <r>   -5.1721    1.0000 </r>
       <r>   -5.1203    1.0000 </r>
       <r>   -5.0915    1.0000 </r>
       <r>   -5.0672    1.0000 </r>
       <r>   -4.6035    1.0000 </r>
       <r>   -4.3310    1.0000 </r>
       <r>   -4.2762    1.0000 </r>
       <r>   -4.1851    1.0000 </r>
       <r>   -4.1748    1.0000 </r>
       <r>   -4.0245    1.0000 </r>
       <r>   -4.0014    1.0000 </r>
       <r>   -3.9163    1.0000 </r>
       <r>   -3.9063    1.0000 </r>
       <r>   -3.4472    1.0000 </r>
       <r>   -3.4053    1.0000 </r>
       <r>   -3.3894    1.0000 </r>
       <r>   -3.3476    1.0000 </r>
       <r>   -3.2046    1.0000 </r>
       <r>   -2.5860    1.0000 </r>
       <r>   -2.5327    1.0000 </r>
       <r>   -2.5095    1.0000 </r>
       <r>   -2.4866    1.0000 </r>
       <r>   -2.3616    1.0000 </r>
       <r>   -2.2296    1.0000 </r>
       <r>   -2.2056    1.0000 </r>
       <r>   -2.1044    1.0000 </r>
       <r>   -0.0954    1.0000 </r>
       <r>   -0.0687    1.0000 </r>
       <r>   -0.0098    1.0000 </r>
       <r>    0.0412    1.0000 </r>
       <r>    0.3579    1.0000 </r>
       <r>    0.3822    1.0000 </r>
       <r>    0.7095    1.0000 </r>
       <r>    0.7196    1.0000 </r>
       <r>    0.9601    1.0000 </r>
       <r>    1.0168    1.0000 </r>
       <r>    1.0400    1.0000 </r>
       <r>    1.0643    1.0000 </r>
       <r>    1.0819    1.0000 </r>
       <r>    1.1055    1.0000 </r>
       <r>    1.1343    1.0000 </r>
       <r>    1.1738    1.0000 </r>
       <r>    1.2447    1.0000 </r>
       <r>    1.3758    1.0000 </r>
       <r>    1.3992    1.0000 </r>
       <r>    1.4166    1.0000 </r>
       <r>    1.4833    1.0000 </r>
       <r>    2.6582    1.0000 </r>
       <r>    2.6780    1.0000 </r>
       <r>    2.6959    1.0000 </r>
       <r>    2.7249    1.0000 </r>
       <r>    2.8999    1.0000 </r>
       <r>    2.9123    1.0000 </r>
       <r>    2.9359    1.0000 </r>
       <r>    2.9638    1.0000 </r>
       <r>    2.9728    1.0000 </r>
       <r>    3.0116    1.0000 </r>
       <r>    3.0317    1.0000 </r>
       <r>    3.0592    1.0000 </r>
       <r>    3.0967    1.0000 </r>
       <r>    3.5219    1.0000 </r>
       <r>    3.5294    1.0000 </r>
       <r>    3.6355    1.0000 </r>
       <r>    3.6489    1.0000 </r>
       <r>    3.9885    1.0000 </r>
       <r>    3.9999    1.0000 </r>
       <r>    4.0231    1.0000 </r>
       <r>    4.0712    1.0000 </r>
       <r>    4.3233    1.0000 </r>
       <r>    4.3603    1.0000 </r>
       <r>    4.3791    1.0000 </r>
       <r>    4.3890    1.0000 </r>
       <r>    4.4091    1.0000 </r>
       <r>    4.4329    1.0000 </r>
       <r>    4.4643    1.0000 </r>
       <r>    4.4733    1.0000 </r>
       <r>    4.6206    1.0000 </r>
       <r>    4.6343    1.0000 </r>
       <r>    4.6699    1.0000 </r>
       <r>    4.7072    1.0000 </r>
       <r>    4.7924    1.0000 </r>
       <r>    4.8146    1.0000 </r>
       <r>    4.8518    1.0000 </r>
       <r>    4.8583    1.0000 </r>
       <r>    4.9698    1.0000 </r>
       <r>    4.9975    1.0000 </r>
       <r>    5.3761    1.0000 </r>
       <r>    5.4173    1.0000 </r>
       <r>    5.6031    1.0000 </r>
       <r>    5.6092    1.0000 </r>
       <r>    5.6191    1.0000 </r>
       <r>    5.6258    1.0000 </r>
       <r>    5.8488    1.0000 </r>
       <r>    5.8780    1.0000 </r>
       <r>    5.9029    1.0000 </r>
       <r>    5.9490    1.0000 </r>
       <r>    6.1580    1.0000 </r>
       <r>    6.2414    1.0000 </r>
       <r>    6.2677    1.0000 </r>
       <r>    6.3075    1.0000 </r>
       <r>    6.3136    1.0000 </r>
       <r>    6.4484    1.0000 </r>
       <r>    6.4752    1.0000 </r>
       <r>    6.4987    1.0000 </r>
       <r>    6.5505    1.0000 </r>
       <r>    6.6981    1.0000 </r>
       <r>    6.7296    1.0000 </r>
       <r>    6.7969    1.0000 </r>
       <r>    6.8398    1.0000 </r>
       <r>    6.8524    1.0000 </r>
       <r>    6.8716    1.0000 </r>
       <r>    6.9161    1.0000 </r>
       <r>    6.9413    1.0000 </r>
       <r>    6.9611    1.0000 </r>
       <r>    6.9894    1.0000 </r>
       <r>    7.0244    1.0000 </r>
       <r>    7.0458    1.0000 </r>
       <r>    7.0712    1.0000 </r>
       <r>    7.0851    1.0000 </r>
       <r>    7.4919    1.0000 </r>
       <r>    7.6834    1.0015 </r>
       <r>    7.7405    1.0046 </r>
       <r>    9.6689   -0.0000 </r>
       <r>   10.1191   -0.0000 </r>
       <r>   10.2617   -0.0000 </r>
       <r>   10.6142   -0.0000 </r>
       <r>   11.8967   -0.0000 </r>
       <r>   11.9967   -0.0000 </r>
       <r>   12.4386   -0.0000 </r>
       <r>   12.5841   -0.0000 </r>
       <r>   12.6224   -0.0000 </r>
       <r>   12.6330   -0.0000 </r>
       <r>   12.6676   -0.0000 </r>
       <r>   12.8540   -0.0000 </r>
       <r>   12.9059   -0.0000 </r>
       <r>   12.9641   -0.0000 </r>
       <r>   12.9803   -0.0000 </r>
       <r>   12.9998   -0.0000 </r>
       <r>   13.0358   -0.0000 </r>
       <r>   13.0726   -0.0000 </r>
       <r>   13.0938   -0.0000 </r>
       <r>   13.1222   -0.0000 </r>
       <r>   13.1679   -0.0000 </r>
       <r>   13.2067   -0.0000 </r>
       <r>   13.4990   -0.0000 </r>
       <r>   13.5635   -0.0000 </r>
       <r>   13.6025   -0.0000 </r>
       <r>   13.6177   -0.0000 </r>
       <r>   13.6531    0.0000 </r>
       <r>   13.6766    0.0000 </r>
       <r>   13.6886    0.0000 </r>
       <r>   13.7164    0.0000 </r>
       <r>   13.7232    0.0000 </r>
       <r>   13.9376    0.0000 </r>
       <r>   13.9671    0.0000 </r>
       <r>   13.9878    0.0000 </r>
       <r>   14.0274    0.0000 </r>
       <r>   14.4645    0.0000 </r>
       <r>   14.7406    0.0000 </r>
       <r>   14.7910    0.0000 </r>
       <r>   14.8202    0.0000 </r>
       <r>   14.8893    0.0000 </r>
      </set>
      <set comment="kpoint 5">
       <r>   -6.9955    1.0000 </r>
       <r>   -6.4844    1.0000 </r>
       <r>   -6.4377    1.0000 </r>
       <r>   -5.9506    1.0000 </r>
       <r>   -5.5199    1.0000 </r>
       <r>   -5.3663    1.0000 </r>
       <r>   -5.0794    1.0000 </r>
       <r>   -4.9972    1.0000 </r>
       <r>   -4.9044    1.0000 </r>
       <r>   -4.8923    1.0000 </r>
       <r>   -4.6231    1.0000 </r>
       <r>   -4.5043    1.0000 </r>
       <r>   -4.4497    1.0000 </r>
       <r>   -4.4016    1.0000 </r>
       <r>   -4.0802    1.0000 </r>
       <r>   -3.9740    1.0000 </r>
       <r>   -3.6106    1.0000 </r>
       <r>   -3.5189    1.0000 </r>
       <r>   -3.4654    1.0000 </r>
       <r>   -3.3944    1.0000 </r>
       <r>   -3.3409    1.0000 </r>
       <r>   -3.3153    1.0000 </r>
       <r>   -3.1812    1.0000 </r>
       <r>   -3.0443    1.0000 </r>
       <r>   -2.8808    1.0000 </r>
       <r>   -2.8252    1.0000 </r>
       <r>   -2.7621    1.0000 </r>
       <r>   -2.7359    1.0000 </r>
       <r>   -2.6315    1.0000 </r>
       <r>   -2.3450    1.0000 </r>
       <r>   -2.2939    1.0000 </r>
       <r>   -2.2395    1.0000 </r>
       <r>   -0.2442    1.0000 </r>
       <r>   -0.1445    1.0000 </r>
       <r>    0.4435    1.0000 </r>
       <r>    0.4865    1.0000 </r>
       <r>    0.5187    1.0000 </r>
       <r>    0.5796    1.0000 </r>
       <r>    0.6004    1.0000 </r>
       <r>    0.6276    1.0000 </r>
       <r>    0.6950    1.0000 </r>
       <r>    0.7787    1.0000 </r>
       <r>    0.7897    1.0000 </r>
       <r>    0.8310    1.0000 </r>
       <r>    0.8982    1.0000 </r>
       <r>    1.0166    1.0000 </r>
       <r>    1.2018    1.0000 </r>
       <r>    1.2257    1.0000 </r>
       <r>    1.2619    1.0000 </r>
       <r>    1.2997    1.0000 </r>
       <r>    1.9514    1.0000 </r>
       <r>    1.9772    1.0000 </r>
       <r>    2.0166    1.0000 </r>
       <r>    2.0347    1.0000 </r>
       <r>    2.1089    1.0000 </r>
       <r>    2.1715    1.0000 </r>
       <r>    2.4115    1.0000 </r>
       <r>    2.5558    1.0000 </r>
       <r>    2.5654    1.0000 </r>
       <r>    2.6900    1.0000 </r>
       <r>    2.7286    1.0000 </r>
       <r>    3.1797    1.0000 </r>
       <r>    3.2545    1.0000 </r>
       <r>    3.2872    1.0000 </r>
       <r>    3.3316    1.0000 </r>
       <r>    3.3910    1.0000 </r>
       <r>    3.4955    1.0000 </r>
       <r>    3.5362    1.0000 </r>
       <r>    3.8879    1.0000 </r>
       <r>    3.9188    1.0000 </r>
       <r>    3.9341    1.0000 </r>
       <r>    3.9875    1.0000 </r>
       <r>    4.0913    1.0000 </r>
       <r>    4.1063    1.0000 </r>
       <r>    4.1524    1.0000 </r>
       <r>    4.2674    1.0000 </r>
       <r>    4.2978    1.0000 </r>
       <r>    4.4836    1.0000 </r>
       <r>    4.4951    1.0000 </r>
       <r>    4.6472    1.0000 </r>
       <r>    4.7045    1.0000 </r>
       <r>    4.8444    1.0000 </r>
       <r>    4.8611    1.0000 </r>
       <r>    4.8906    1.0000 </r>
       <r>    4.9399    1.0000 </r>
       <r>    4.9485    1.0000 </r>
       <r>    4.9802    1.0000 </r>
       <r>    5.0634    1.0000 </r>
       <r>    5.2373    1.0000 </r>
       <r>    5.2823    1.0000 </r>
       <r>    5.3308    1.0000 </r>
       <r>    5.3773    1.0000 </r>
       <r>    5.4377    1.0000 </r>
       <r>    5.5316    1.0000 </r>
       <r>    5.5432    1.0000 </r>
       <r>    5.5604    1.0000 </r>
       <r>    5.6017    1.0000 </r>
       <r>    5.6166    1.0000 </r>
       <r>    5.6489    1.0000 </r>
       <r>    5.6830    1.0000 </r>
       <r>    5.7398    1.0000 </r>
       <r>    5.8090    1.0000 </r>
       <r>    5.9844    1.0000 </r>
       <r>    6.0060    1.0000 </r>
       <r>    6.0243    1.0000 </r>
       <r>    6.1020    1.0000 </r>
       <r>    6.1630    1.0000 </r>
       <r>    6.1936    1.0000 </r>
       <r>    6.2601    1.0000 </r>
       <r>    6.3281    1.0000 </r>
       <r>    6.3965    1.0000 </r>
       <r>    6.4391    1.0000 </r>
       <r>    6.4738    1.0000 </r>
       <r>    6.5313    1.0000 </r>
       <r>    6.5929    1.0000 </r>
       <r>    6.6030    1.0000 </r>
       <r>    6.6881    1.0000 </r>
       <r>    6.7345    1.0000 </r>
       <r>    6.7851    1.0000 </r>
       <r>    6.8364    1.0000 </r>
       <r>    6.8661    1.0000 </r>
       <r>    6.9203    1.0000 </r>
       <r>    6.9654    1.0000 </r>
       <r>    7.3265    1.0000 </r>
       <r>    7.5295    1.0000 </r>
       <r>    7.5689    1.0001 </r>
       <r>    7.6214    1.0003 </r>
       <r>    7.9587    1.0308 </r>
       <r>   10.3918   -0.0000 </r>
       <r>   10.4070   -0.0000 </r>
       <r>   10.5449   -0.0000 </r>
       <r>   11.2905   -0.0000 </r>
       <r>   11.3581   -0.0000 </r>
       <r>   11.6064   -0.0000 </r>
       <r>   11.6839   -0.0000 </r>
       <r>   11.7788   -0.0000 </r>
       <r>   12.1246   -0.0000 </r>
       <r>   12.2261   -0.0000 </r>
       <r>   12.7337   -0.0000 </r>
       <r>   12.7920   -0.0000 </r>
       <r>   12.8440   -0.0000 </r>
       <r>   12.9400   -0.0000 </r>
       <r>   12.9964   -0.0000 </r>
       <r>   13.0950   -0.0000 </r>
       <r>   13.1152   -0.0000 </r>
       <r>   13.1542   -0.0000 </r>
       <r>   13.1820   -0.0000 </r>
       <r>   13.2333   -0.0000 </r>
       <r>   13.2677   -0.0000 </r>
       <r>   13.3046   -0.0000 </r>
       <r>   13.5003   -0.0000 </r>
       <r>   13.5395   -0.0000 </r>
       <r>   13.5716   -0.0000 </r>
       <r>   13.6209   -0.0000 </r>
       <r>   13.6683    0.0000 </r>
       <r>   13.7456    0.0000 </r>
       <r>   13.7541    0.0000 </r>
       <r>   13.8321    0.0000 </r>
       <r>   13.8560    0.0000 </r>
       <r>   13.9141    0.0000 </r>
       <r>   14.0086    0.0000 </r>
       <r>   14.0887    0.0000 </r>
       <r>   14.1179    0.0000 </r>
       <r>   14.6480    0.0000 </r>
       <r>   14.7149    0.0000 </r>
       <r>   14.7208    0.0000 </r>
       <r>   14.8568    0.0000 </r>
       <r>   14.9227    0.0000 </r>
      </set>
      <set comment="kpoint 6">
       <r>   -6.9946    1.0000 </r>
       <r>   -6.4735    1.0000 </r>
       <r>   -6.4542    1.0000 </r>
       <r>   -5.9449    1.0000 </r>
       <r>   -5.4724    1.0000 </r>
       <r>   -5.4295    1.0000 </r>
       <r>   -5.0200    1.0000 </r>
       <r>   -4.9933    1.0000 </r>
       <r>   -4.9476    1.0000 </r>
       <r>   -4.9161    1.0000 </r>
       <r>   -4.5567    1.0000 </r>
       <r>   -4.5441    1.0000 </r>
       <r>   -4.4580    1.0000 </r>
       <r>   -4.4230    1.0000 </r>
       <r>   -4.0553    1.0000 </r>
       <r>   -3.9896    1.0000 </r>
       <r>   -3.5540    1.0000 </r>
       <r>   -3.5331    1.0000 </r>
       <r>   -3.4306    1.0000 </r>
       <r>   -3.3986    1.0000 </r>
       <r>   -3.3575    1.0000 </r>
       <r>   -3.3316    1.0000 </r>
       <r>   -3.1596    1.0000 </r>
       <r>   -3.1040    1.0000 </r>
       <r>   -2.8762    1.0000 </r>
       <r>   -2.8334    1.0000 </r>
       <r>   -2.7753    1.0000 </r>
       <r>   -2.7198    1.0000 </r>
       <r>   -2.6395    1.0000 </r>
       <r>   -2.3209    1.0000 </r>
       <r>   -2.3191    1.0000 </r>
       <r>   -2.2244    1.0000 </r>
       <r>   -0.1860    1.0000 </r>
       <r>   -0.1440    1.0000 </r>
       <r>    0.4481    1.0000 </r>
       <r>    0.4800    1.0000 </r>
       <r>    0.5143    1.0000 </r>
       <r>    0.5602    1.0000 </r>
       <r>    0.5825    1.0000 </r>
       <r>    0.6304    1.0000 </r>
       <r>    0.6920    1.0000 </r>
       <r>    0.7859    1.0000 </r>
       <r>    0.8042    1.0000 </r>
       <r>    0.8378    1.0000 </r>
       <r>    0.8466    1.0000 </r>
       <r>    0.9682    1.0000 </r>
       <r>    1.1632    1.0000 </r>
       <r>    1.2189    1.0000 </r>
       <r>    1.2628    1.0000 </r>
       <r>    1.3167    1.0000 </r>
       <r>    1.9749    1.0000 </r>
       <r>    2.0223    1.0000 </r>
       <r>    2.0351    1.0000 </r>
       <r>    2.0750    1.0000 </r>
[...]
      </set>
     </set>
    </set>
   </array>
  </eigenvalues>
  <separator name="orbital magnetization" >
   <v name="MAGDIPOLOUT">      0.00000000      0.00000000      0.00000000</v>
  </separator>
  <dos>
   <i name="efermi">      8.17239924 </i>
   <total>
    <array>
     <dimension dim="1">gridpoints</dimension>
     <dimension dim="2">spin</dimension>
     <field>energy</field>
     <field>total</field>
     <field>integrated</field>
     <set>
      <set comment="spin 1">
       <r>    -9.3489     0.0000     0.0000 </r>
       <r>    -9.2595     0.0000     0.0000 </r>
       <r>    -9.1702     0.0000     0.0000 </r>
       <r>    -9.0809     0.0000     0.0000 </r>
       <r>    -8.9916    -0.0000    -0.0000 </r>
       <r>    -8.9023    -0.0000    -0.0000 </r>
       <r>    -8.8129    -0.0000    -0.0000 </r>
       <r>    -8.7236    -0.0000    -0.0000 </r>
       <r>    -8.6343    -0.0000    -0.0000 </r>
       <r>    -8.5450    -0.0000    -0.0000 </r>
       <r>    -8.4557    -0.0000    -0.0000 </r>
       <r>    -8.3663    -0.0000    -0.0000 </r>
       <r>    -8.2770    -0.0000    -0.0000 </r>
       <r>    -8.1877    -0.0000    -0.0000 </r>
       <r>    -8.0984    -0.0000    -0.0000 </r>
       <r>    -8.0091    -0.0000    -0.0000 </r>
       <r>    -7.9197    -0.0002    -0.0000 </r>
       <r>    -7.8304    -0.0013    -0.0001 </r>
       <r>    -7.7411    -0.0070    -0.0008 </r>
       <r>    -7.6518    -0.0228    -0.0028 </r>
       <r>    -7.5625    -0.0421    -0.0066 </r>
       <r>    -7.4731    -0.0220    -0.0085 </r>
       <r>    -7.3838     0.1411     0.0041 </r>
       <r>    -7.2945     0.6238     0.0598 </r>
       <r>    -7.2052     1.5516     0.1984 </r>
       <r>    -7.1159     2.8196     0.4502 </r>
       <r>    -7.0266     4.0529     0.8122 </r>
       <r>    -6.9372     4.5946     1.2226 </r>
       <r>    -6.8479     4.0894     1.5879 </r>
       <r>    -6.7586     3.0764     1.8626 </r>
       <r>    -6.6693     2.6763     2.1017 </r>
       <r>    -6.5800     4.0557     2.4639 </r>
       <r>    -6.4906     7.1671     3.1041 </r>
       <r>    -6.4013     9.9978     3.9971 </r>
       <r>    -6.3120    10.3370     4.9204 </r>
       <r>    -6.2227     7.6732     5.6058 </r>
       <r>    -6.1334     3.7778     5.9432 </r>
       <r>    -6.0440     1.9045     6.1133 </r>
       <r>    -5.9547     3.5749     6.4326 </r>
       <r>    -5.8654     7.2403     7.0793 </r>
       <r>    -5.7761    10.5307     8.0199 </r>
       <r>    -5.6868    11.9539     9.0876 </r>
       <r>    -5.5974    11.6713    10.1301 </r>
       <r>    -5.5081    10.8701    11.1010 </r>
       <r>    -5.4188     9.6420    11.9622 </r>
       <r>    -5.3295     7.6402    12.6446 </r>
       <r>    -5.2402     6.4740    13.2229 </r>
       <r>    -5.1508     8.5780    13.9891 </r>
       <r>    -5.0615    13.4171    15.1875 </r>
       <r>    -4.9722    16.3857    16.6510 </r>
       <r>    -4.8829    13.4171    17.8494 </r>
       <r>    -4.7936     6.7588    18.4531 </r>
       <r>    -4.7042     3.1950    18.7385 </r>
       <r>    -4.6149     6.0831    19.2818 </r>
       <r>    -4.5256    12.5067    20.3989 </r>
       <r>    -4.4363    18.0212    22.0086 </r>
       <r>    -4.3470    19.8072    23.7777 </r>
       <r>    -4.2577    17.1054    25.3056 </r>
       <r>    -4.1683    13.8234    26.5403 </r>
       <r>    -4.0790    15.9121    27.9615 </r>
       <r>    -3.9897    21.9997    29.9265 </r>
       <r>    -3.9004    23.6612    32.0399 </r>
       <r>    -3.8111    18.0639    33.6534 </r>
       <r>    -3.7217    12.0947    34.7337 </r>
       <r>    -3.6324    11.7396    35.7823 </r>
       <r>    -3.5431    15.9334    37.2054 </r>
       <r>    -3.4538    20.8139    39.0645 </r>
       <r>    -3.3645    22.5784    41.0812 </r>
       <r>    -3.2751    19.8889    42.8577 </r>
       <r>    -3.1858    16.6374    44.3437 </r>
       <r>    -3.0965    16.4624    45.8141 </r>
       <r>    -3.0072    18.6313    47.4783 </r>
       <r>    -2.9179    22.3374    49.4734 </r>
       <r>    -2.8285    26.5360    51.8436 </r>
       <r>    -2.7392    27.3350    54.2851 </r>
       <r>    -2.6499    22.4301    56.2886 </r>
       <r>    -2.5606    14.9763    57.6263 </r>
       <r>    -2.4713    10.4559    58.5602 </r>
       <r>    -2.3819    11.5637    59.5930 </r>
       <r>    -2.2926    15.5077    60.9782 </r>
       <r>    -2.2033    16.3275    62.4365 </r>
       <r>    -2.1140    11.7519    63.4862 </r>
       <r>    -2.0247     5.3628    63.9652 </r>
       <r>    -1.9353     1.1703    64.0697 </r>
       <r>    -1.8460    -0.2564    64.0468 </r>
       <r>    -1.7567    -0.3285    64.0175 </r>
       <r>    -1.6674    -0.1460    64.0045 </r>
       <r>    -1.5781    -0.0409    64.0008 </r>
       <r>    -1.4888    -0.0078    64.0001 </r>
       <r>    -1.3994    -0.0010    64.0000 </r>
       <r>    -1.3101    -0.0001    64.0000 </r>
       <r>    -1.2208    -0.0000    64.0000 </r>
       <r>    -1.1315    -0.0002    64.0000 </r>
       <r>    -1.0422    -0.0021    63.9998 </r>
       <r>    -0.9528    -0.0114    63.9988 </r>
       <r>    -0.8635    -0.0353    63.9956 </r>
       <r>    -0.7742    -0.0423    63.9918 </r>
       <r>    -0.6849     0.0840    63.9993 </r>
       <r>    -0.5956     0.3942    64.0346 </r>
       <r>    -0.5062     0.6211    64.0900 </r>
       <r>    -0.4169     0.6866    64.1514 </r>
       <r>    -0.3276     1.7488    64.3076 </r>
       <r>    -0.2383     5.1349    64.7662 </r>
       <r>    -0.1490     9.3042    65.5973 </r>
       <r>    -0.0596    10.6351    66.5472 </r>
       <r>     0.0297     8.4450    67.3015 </r>
       <r>     0.1190     6.2731    67.8618 </r>
       <r>     0.2083     7.6183    68.5423 </r>
       <r>     0.2976    12.5803    69.6659 </r>
       <r>     0.3870    18.7069    71.3368 </r>
       <r>     0.4763    23.0014    73.3913 </r>
       <r>     0.5656    24.1054    75.5444 </r>
       <r>     0.6549    24.4366    77.7270 </r>
       <r>     0.7442    27.4900    80.1824 </r>
       <r>     0.8335    31.7201    83.0156 </r>
       <r>     0.9229    31.9965    85.8735 </r>
       <r>     1.0122    28.8909    88.4541 </r>
       <r>     1.1015    29.0219    91.0463 </r>
       <r>     1.1908    34.2570    94.1061 </r>
       <r>     1.2801    37.6172    97.4660 </r>
       <r>     1.3695    32.2141   100.3434 </r>
       <r>     1.4588    19.7401   102.1066 </r>
       <r>     1.5481     7.5274   102.7789 </r>
       <r>     1.6374     0.5455   102.8276 </r>
       <r>     1.7267    -1.0929   102.7300 </r>
       <r>     1.8161     1.2706   102.8435 </r>
       <r>     1.9054     7.5976   103.5221 </r>
       <r>     1.9947    16.9214   105.0335 </r>
       <r>     2.0840    24.1096   107.1870 </r>
       <r>     2.1733    23.5597   109.2913 </r>
       <r>     2.2627    16.1735   110.7359 </r>
       <r>     2.3520     8.4922   111.4944 </r>
       <r>     2.4413     5.8373   112.0158 </r>
       <r>     2.5306     9.1229   112.8307 </r>
       <r>     2.6199    15.1761   114.1862 </r>
       <r>     2.7093    17.9763   115.7918 </r>
       <r>     2.7986    15.1378   117.1439 </r>
       <r>     2.8879    12.3456   118.2466 </r>
       <r>     2.9772    14.9173   119.5790 </r>
       <r>     3.0665    20.7019   121.4281 </r>
       <r>     3.1559    26.2196   123.7700 </r>
       <r>     3.2452    30.8260   126.5234 </r>
       <r>     3.3345    32.4125   129.4184 </r>
       <r>     3.4238    29.7223   132.0732 </r>
       <r>     3.5131    26.6786   134.4561 </r>
       <r>     3.6024    24.7000   136.6623 </r>
       <r>     3.6918    20.3359   138.4787 </r>
       <r>     3.7811    14.4795   139.7720 </r>
       <r>     3.8704    13.4719   140.9753 </r>
       <r>     3.9597    19.3124   142.7003 </r>
       <r>     4.0490    24.5697   144.8948 </r>
       <r>     4.1384    22.5040   146.9049 </r>
       <r>     4.2277    18.6017   148.5664 </r>
       <r>     4.3170    22.0180   150.5330 </r>
       <r>     4.4063    30.2888   153.2384 </r>
       <r>     4.4956    35.2025   156.3826 </r>
       <r>     4.5850    35.3363   159.5389 </r>
       <r>     4.6743    33.6840   162.5475 </r>
       <r>     4.7636    33.2877   165.5207 </r>
       <r>     4.8529    35.6341   168.7035 </r>
       <r>     4.9422    37.0636   172.0140 </r>
       <r>     5.0316    34.1233   175.0619 </r>
       <r>     5.1209    30.2535   177.7641 </r>
       <r>     5.2102    29.4973   180.3988 </r>
       <r>     5.2995    30.5290   183.1256 </r>
       <r>     5.3888    30.8921   185.8849 </r>
       <r>     5.4782    32.5399   188.7914 </r>
       <r>     5.5675    37.8970   192.1763 </r>
       <r>     5.6568    42.1410   195.9403 </r>
       <r>     5.7461    39.7521   199.4909 </r>
       <r>     5.8354    35.1283   202.6286 </r>
       <r>     5.9248    33.8326   205.6505 </r>
       <r>     6.0141    32.7408   208.5749 </r>
       <r>     6.1034    29.3042   211.1923 </r>
       <r>     6.1927    28.2199   213.7129 </r>
       <r>     6.2820    31.4947   216.5260 </r>
       <r>     6.3713    34.7439   219.6293 </r>
       <r>     6.4607    35.0425   222.7592 </r>
       <r>     6.5500    31.8550   225.6045 </r>
       <r>     6.6393    27.1977   228.0338 </r>
       <r>     6.7286    26.7003   230.4186 </r>
       <r>     6.8179    32.4207   233.3144 </r>
       <r>     6.9073    39.0466   236.8021 </r>
       <r>     6.9966    39.1055   240.2949 </r>
       <r>     7.0859    30.2848   243.0000 </r>
       <r>     7.1752    18.6043   244.6617 </r>
       <r>     7.2645    12.1275   245.7449 </r>
       <r>     7.3539    12.6991   246.8792 </r>
       <r>     7.4432    16.6844   248.3694 </r>
       <r>     7.5325    20.0913   250.1640 </r>
       <r>     7.6218    20.5289   251.9976 </r>
       <r>     7.7111    17.2514   253.5385 </r>
       <r>     7.8005    11.3421   254.5515 </r>
       <r>     7.8898     6.0943   255.0959 </r>
       <r>     7.9791     4.0807   255.4604 </r>
       <r>     8.0684     3.6079   255.7826 </r>
       <r>     8.1577     2.2414   255.9828 </r>
       <r>     8.2471     0.5839   256.0350 </r>
       <r>     8.3364    -0.1499   256.0216 </r>
       <r>     8.4257    -0.1681   256.0066 </r>
       <r>     8.5150    -0.0598   256.0012 </r>
       <r>     8.6043    -0.0120   256.0001 </r>
       <r>     8.6937    -0.0017   256.0000 </r>
       <r>     8.7830    -0.0015   255.9999 </r>
       <r>     8.8723    -0.0073   255.9992 </r>
       <r>     8.9616    -0.0223   255.9972 </r>
       <r>     9.0509    -0.0267   255.9948 </r>
       <r>     9.1402     0.0585   256.0001 </r>
       <r>     9.2296     0.2982   256.0267 </r>
       <r>     9.3189     0.5696   256.0776 </r>
       <r>     9.4082     0.6677   256.1372 </r>
       <r>     9.4975     0.7531   256.2045 </r>
       <r>     9.5868     1.2273   256.3141 </r>
       <r>     9.6762     1.7737   256.4725 </r>
       <r>     9.7655     1.5201   256.6083 </r>
       <r>     9.8548     0.5586   256.6582 </r>
       <r>     9.9441    -0.0896   256.6502 </r>
       <r>    10.0334     0.2794   256.6752 </r>
       <r>    10.1228     1.6413   256.8217 </r>
       <r>    10.2121     3.3916   257.1247 </r>
       <r>    10.3014     5.2640   257.5949 </r>
       <r>    10.3907     7.6256   258.2760 </r>
       <r>    10.4800    10.0497   259.1736 </r>
       <r>    10.5694    11.3956   260.1915 </r>
       <r>    10.6587    10.9921   261.1733 </r>
       <r>    10.7480     8.5792   261.9396 </r>
       <r>    10.8373     4.7615   262.3648 </r>
       <r>    10.9266     1.3011   262.4811 </r>
       <r>    11.0160    -0.4736   262.4388 </r>
       <r>    11.1053    -0.3718   262.4055 </r>
       <r>    11.1946     1.7391   262.5609 </r>
       <r>    11.2839     5.2199   263.0271 </r>
       <r>    11.3732     7.9313   263.7355 </r>
       <r>    11.4626     9.2917   264.5655 </r>
       <r>    11.5519    10.8452   265.5342 </r>
       <r>    11.6412    12.7200   266.6703 </r>
       <r>    11.7305    14.4780   267.9635 </r>
       <r>    11.8198    16.8478   269.4683 </r>
       <r>    11.9091    19.2639   271.1889 </r>
       <r>    11.9985    20.0136   272.9765 </r>
       <r>    12.0878    18.6990   274.6467 </r>
       <r>    12.1771    15.3106   276.0142 </r>
       <r>    12.2664     9.7742   276.8873 </r>
       <r>    12.3557     4.7432   277.3109 </r>
       <r>    12.4451     4.5594   277.7182 </r>
       <r>    12.5344    10.0962   278.6200 </r>
       <r>    12.6237    18.0173   280.2293 </r>
       <r>    12.7130    24.7992   282.4443 </r>
       <r>    12.8023    28.8488   285.0211 </r>
       <r>    12.8917    29.8571   287.6879 </r>
       <r>    12.9810    29.8401   290.3532 </r>
       <r>    13.0703    31.7651   293.1904 </r>
       <r>    13.1596    33.4150   296.1750 </r>
       <r>    13.2489    28.9768   298.7632 </r>
       <r>    13.3383    19.3371   300.4904 </r>
       <r>    13.4276    14.3671   301.7737 </r>
       <r>    13.5169    20.7461   303.6267 </r>
       <r>    13.6062    31.6799   306.4563 </r>
       <r>    13.6955    35.5538   309.6319 </r>
       <r>    13.7849    31.0507   312.4054 </r>
       <r>    13.8742    26.6741   314.7879 </r>
       <r>    13.9635    27.9584   317.2851 </r>
       <r>    14.0528    31.1628   320.0686 </r>
       <r>    14.1421    30.0388   322.7516 </r>
       <r>    14.2315    23.0588   324.8112 </r>
       <r>    14.3208    13.1970   325.9900 </r>
       <r>    14.4101     5.2234   326.4565 </r>
       <r>    14.4994     3.2210   326.7442 </r>
       <r>    14.5887     8.4865   327.5022 </r>
       <r>    14.6780    17.2765   329.0453 </r>
       <r>    14.7674    22.0034   331.0107 </r>
       <r>    14.8567    19.4800   332.7506 </r>
       <r>    14.9460    13.4492   333.9519 </r>
       <r>    15.0353     7.3684   334.6100 </r>
       <r>    15.1246     2.5712   334.8397 </r>
       <r>    15.2140     0.7067   334.9028 </r>
       <r>    15.3033     2.0834   335.0889 </r>
       <r>    15.3926     4.1451   335.4591 </r>
       <r>    15.4819     4.0590   335.8217 </r>
       <r>    15.5712     2.0531   336.0051 </r>
       <r>    15.6606     0.3323   336.0348 </r>
       <r>    15.7499    -0.2002   336.0169 </r>
       <r>    15.8392    -0.1401   336.0044 </r>
       <r>    15.9285    -0.0410   336.0007 </r>
       <r>    16.0178    -0.0070   336.0001 </r>
       <r>    16.1072    -0.0008   336.0000 </r>
       <r>    16.1965    -0.0001   336.0000 </r>
       <r>    16.2858    -0.0000   336.0000 </r>
       <r>    16.3751    -0.0000   336.0000 </r>
       <r>    16.4644    -0.0000   336.0000 </r>
       <r>    16.5538    -0.0000   336.0000 </r>
       <r>    16.6431    -0.0000   336.0000 </r>
       <r>    16.7324    -0.0000   336.0000 </r>
       <r>    16.8217     0.0000   336.0000 </r>
       <r>    16.9110     0.0000   336.0000 </r>
       <r>    17.0004     0.0000   336.0000 </r>
       <r>    17.0897     0.0000   336.0000 </r>
       <r>    17.1790     0.0000   336.0000 </r>
       <r>    17.2683     0.0000   336.0000 </r>
       <r>    17.3576     0.0000   336.0000 </r>
       <r>    17.4469     0.0000   336.0000 </r>
      </set>
     </set>
    </array>
   </total>
  </dos>
 </calculation>
 <structure name="finalpos" >
  <crystal>
   <varray name="basis" >
    <v>       8.74331558       0.00000000       0.00000000 </v>
    <v>       0.00000000       8.74331558       0.00000000 </v>
    <v>       0.00000000       0.00000000       8.74331558 </v>
   </varray>
   <i name="volume">    668.38771987 </i>
   <varray name="rec_basis" >
    <v>       0.11437309       0.00000000       0.00000000 </v>
    <v>       0.00000000       0.11437309       0.00000000 </v>
    <v>       0.00000000       0.00000000       0.11437309 </v>
   </varray>
  </crystal>
  <varray name="positions" >
   <v>       0.12146901       0.12690591       0.12112512 </v>
   <v>       0.12516724       0.37597315       0.37577829 </v>
   <v>       0.37804532       0.12481087       0.37381527 </v>
   <v>       0.37177849       0.37111036       0.12229774 </v>
   <v>       0.12360349       0.12435766       0.62737649 </v>
   <v>       0.12673483       0.37839559       0.87795708 </v>
   <v>       0.37605274       0.12491970       0.87809680 </v>
   <v>       0.37652388       0.37215694       0.62592560 </v>
   <v>       0.12390544       0.63210312       0.12694734 </v>
   <v>       0.13109220       0.87279491       0.37238615 </v>
   <v>       0.37133643       0.62357024       0.37460426 </v>
   <v>       0.37245018       0.87008082       0.12646154 </v>
   <v>       0.12741929       0.62636339       0.62203181 </v>
   <v>       0.12275146       0.87308958       0.87526180 </v>
   <v>       0.37536688       0.62547587       0.86837655 </v>
   <v>       0.37308183       0.87663900       0.62443107 </v>
   <v>       0.62584350       0.12243271       0.12613199 </v>
   <v>       0.62627600       0.37057164       0.37845891 </v>
   <v>       0.87078574       0.12326965       0.37852561 </v>
   <v>       0.87656848       0.38082900       0.12738465 </v>
   <v>       0.62349812       0.12575110       0.62786018 </v>
   <v>       0.62447553       0.37702234       0.87250376 </v>
   <v>       0.87405926       0.12497490       0.87145950 </v>
   <v>       0.87542950       0.37321433       0.62465467 </v>
   <v>       0.62728251       0.62773984       0.12433729 </v>
   <v>       0.62231655       0.87675862       0.37911967 </v>
   <v>       0.87817360       0.62397955       0.37478278 </v>
   <v>       0.87051095       0.87636197       0.12131104 </v>
   <v>       0.62460136       0.62383839       0.62425439 </v>
   <v>       0.62713483       0.87356929       0.87460340 </v>
   <v>       0.87425876       0.61905066       0.87591711 </v>
   <v>       0.87250093       0.87293107       0.63554651 </v>
   <v>       0.00642123       0.99689758       0.00190996 </v>
   <v>       0.99874132       0.25177121       0.24759396 </v>
   <v>       0.24298952       0.00158960       0.25049092 </v>
   <v>       0.25006130       0.24538340       0.99882381 </v>
   <v>       0.99378505       0.99627820       0.49544159 </v>
   <v>       0.00333581       0.25297270       0.74815473 </v>
   <v>       0.25451063       0.99938331       0.74618978 </v>
   <v>       0.24313724       0.24755456       0.50442269 </v>
   <v>       0.00202011       0.50268012       0.00036083 </v>
   <v>       0.99890740       0.74640596       0.24790388 </v>
   <v>       0.25087956       0.49770114       0.25128950 </v>
   <v>       0.25730751       0.75384764       0.99883209 </v>
   <v>       0.99965899       0.49914264       0.49924957 </v>
   <v>       0.99411611       0.74592888       0.74869677 </v>
   <v>       0.25351435       0.50105210       0.75017671 </v>
   <v>       0.25303843       0.75460527       0.49848618 </v>
   <v>       0.50690738       0.00423585       0.00007965 </v>
   <v>       0.50020485       0.25183319       0.24676317 </v>
   <v>       0.74724919       0.99610256       0.24521283 </v>
   <v>       0.74885378       0.24753328       0.00137138 </v>
   <v>       0.50106919       0.00139183       0.50059668 </v>
   <v>       0.50038069       0.25122288       0.75458903 </v>
   <v>       0.75220948       0.99775507       0.74941390 </v>
   <v>       0.74988545       0.24388525       0.50664621 </v>
   <v>       0.49921186       0.50005169       0.00220620 </v>
   <v>       0.49509819       0.75010160       0.24611680 </v>
   <v>       0.74658344       0.50171620       0.24618529 </v>
   <v>       0.75039224       0.75352110       0.00279357 </v>
   <v>       0.50113369       0.49930506       0.49834063 </v>
   <v>       0.50700967       0.74868126       0.74686109 </v>
   <v>       0.75163054       0.50151014       0.74817665 </v>
   <v>       0.75339889       0.75015854       0.49686007 </v>
  </varray>
 </structure>
</modeling>
