unknown system                          
           1
     8.743316    0.000000    0.000000
     0.000000    8.743316    0.000000
     0.000000    0.000000    8.743316
   C    Si
    32    32
Direct configuration=     1
   0.12146901  0.12690591  0.12112512
   0.12516724  0.37597315  0.37577829
   0.37804532  0.12481087  0.37381527
   0.37177849  0.37111036  0.12229774
   0.12360349  0.12435766  0.62737649
   0.12673483  0.37839559  0.87795708
   0.37605274  0.12491970  0.87809680
   0.37652388  0.37215694  0.62592560
   0.12390544  0.63210312  0.12694734
   0.13109220  0.87279491  0.37238615
   0.37133643  0.62357024  0.37460426
   0.37245018  0.87008082  0.12646154
   0.12741929  0.62636339  0.62203181
   0.12275146  0.87308958  0.87526180
   0.37536688  0.62547587  0.86837655
   0.37308183  0.87663900  0.62443107
   0.62584350  0.12243271  0.12613199
   0.62627600  0.37057164  0.37845891
   0.87078574  0.12326965  0.37852561
   0.87656848  0.38082900  0.12738465
   0.62349812  0.12575110  0.62786018
   0.62447553  0.37702234  0.87250376
   0.87405926  0.12497490  0.87145950
   0.87542950  0.37321433  0.62465467
   0.62728251  0.62773984  0.12433729
   0.62231655  0.87675862  0.37911967
   0.87817360  0.62397955  0.37478278
   0.87051095  0.87636197  0.12131104
   0.62460136  0.62383839  0.62425439
   0.62713483  0.87356929  0.87460340
   0.87425876  0.61905066  0.87591711
   0.87250093  0.87293107  0.63554651
   0.00642123  0.99689758  0.00190996
   0.99874132  0.25177121  0.24759396
   0.24298952  0.00158960  0.25049092
   0.25006130  0.24538340  0.99882381
   0.99378505  0.99627820  0.49544159
   0.00333581  0.25297270  0.74815473
   0.25451063  0.99938331  0.74618978
   0.24313724  0.24755456  0.50442269
   0.00202011  0.50268012  0.00036083
   0.99890740  0.74640596  0.24790388
   0.25087956  0.49770114  0.25128950
   0.25730751  0.75384764  0.99883209
   0.99965899  0.49914264  0.49924957
   0.99411611  0.74592888  0.74869677
   0.25351435  0.50105210  0.75017671
   0.25303843  0.75460527  0.49848618
   0.50690738  0.00423585  0.00007965
   0.50020485  0.25183319  0.24676317
   0.74724919  0.99610256  0.24521283
   0.74885378  0.24753328  0.00137138
   0.50106919  0.00139183  0.50059668
   0.50038069  0.25122288  0.75458903
   0.75220948  0.99775507  0.74941390
   0.74988545  0.24388525  0.50664621
   0.49921186  0.50005169  0.00220620
   0.49509819  0.75010160  0.24611680
   0.74658344  0.50171620  0.24618529
   0.75039224  0.75352110  0.00279357
   0.50113369  0.49930506  0.49834063
   0.50700967  0.74868126  0.74686109
   0.75163054  0.50151014  0.74817665
   0.75339889  0.75015854  0.49686007
