       N       E                     dE             d eps       ncg     rms          rms(c)
DAV:   1     0.671969562651E+03    0.67197E+03   -0.99584E+04  4704   0.111E+03
DAV:   2    -0.460171200055E+03   -0.11321E+04   -0.10718E+04  5816   0.221E+02
DAV:   3    -0.535923406684E+03   -0.75752E+02   -0.75036E+02  5680   0.564E+01
DAV:   4    -0.537616913788E+03   -0.16935E+01   -0.16862E+01  5696   0.912E+00
DAV:   5    -0.537664243020E+03   -0.47329E-01   -0.47247E-01  5592   0.145E+00    0.495E+01
DAV:   6    -0.480138576778E+03    0.57526E+02   -0.19196E+02  5328   0.237E+01    0.220E+01
DAV:   7    -0.478833620921E+03    0.13050E+01   -0.16445E+01  5832   0.728E+00    0.985E+00
DAV:   8    -0.478596740766E+03    0.23688E+00   -0.10753E+00  5448   0.206E+00    0.287E+00
DAV:   9    -0.478580133070E+03    0.16608E-01   -0.17049E-01  5480   0.924E-01    0.485E-01
DAV:  10    -0.478582025888E+03   -0.18928E-02   -0.15949E-02  5744   0.302E-01    0.284E-01
DAV:  11    -0.478583548196E+03   -0.15223E-02   -0.34539E-03  5256   0.143E-01    0.119E-01
DAV:  12    -0.478583700594E+03   -0.15240E-03   -0.48860E-04  5992   0.554E-02    0.498E-02
DAV:  13    -0.478583724620E+03   -0.24026E-04   -0.18449E-04  5128   0.298E-02    0.111E-02
DAV:  14    -0.478583727175E+03   -0.25546E-05   -0.67920E-06  5720   0.672E-03    0.541E-03
DAV:  15    -0.478583729135E+03   -0.19600E-05   -0.34119E-06  5384   0.405E-03    0.293E-03
DAV:  16    -0.478583729460E+03   -0.32514E-06   -0.38540E-07  5696   0.165E-03    0.116E-03
DAV:  17    -0.478583729839E+03   -0.37890E-06   -0.12856E-07  5184   0.827E-04    0.754E-04
DAV:  18    -0.478583729832E+03    0.70213E-08   -0.50244E-09  2816   0.197E-04
   1 F= -.47858373E+03 E0= -.47858758E+03  d E =0.115547E-01
