<?xml version="1.0" encoding="ISO-8859-1"?>
<modeling>
 <generator>
  <i name="program" type="string">vasp </i>
  <i name="version" type="string">6.2.1  </i>
  <i name="subversion" type="string">16May21 (build Jun 06 2020 10:27:25) complex                          parallel </i>
  <i name="platform" type="string">LinuxIFC </i>
  <i name="date" type="string">2024 01 25 </i>
  <i name="time" type="string">17:20:59 </i>
 </generator>
 <incar>
  <i type="int" name="NELM">    60</i>
  <i type="int" name="IBRION">     1</i>
  <i name="EDIFF">      0.00000001</i>
  <i type="int" name="NSW">     0</i>
  <i type="int" name="ISIF">     3</i>
  <i type="int" name="ISYM">     0</i>
  <i type="logical" name="LWAVE"> F  </i>
  <i type="logical" name="LCHARG"> F  </i>
  <i type="string" name="GGA">PE</i>
 </incar>
 <primitive_cell>
  <structure name="primitive_cell" >
   <crystal>
    <varray name="basis" >
     <v>       8.74331558       0.00000000       0.00000000 </v>
     <v>       0.00000000       8.74331558       0.00000000 </v>
     <v>       0.00000000       0.00000000       8.74331558 </v>
    </varray>
    <i name="volume">    668.38771987 </i>
    <varray name="rec_basis" >
     <v>       0.11437309       0.00000000       0.00000000 </v>
     <v>       0.00000000       0.11437309       0.00000000 </v>
     <v>       0.00000000       0.00000000       0.11437309 </v>
    </varray>
   </crystal>
   <varray name="positions" >
    <v>       0.12795314       0.12592627       0.11908772 </v>
    <v>       0.12638152       0.36623136       0.37031329 </v>
    <v>       0.36718876       0.11999985       0.37509526 </v>
    <v>       0.37243653       0.38300150       0.12864487 </v>
    <v>       0.12922807       0.12224299       0.63127296 </v>
    <v>       0.12047128       0.37988589       0.87523170 </v>
    <v>       0.37813410       0.11962484       0.86957692 </v>
    <v>       0.37127081       0.37267677       0.62397572 </v>
    <v>       0.12541854       0.63144344       0.12549403 </v>
    <v>       0.12058468       0.87184918       0.37920241 </v>
    <v>       0.37351819       0.63085588       0.37577085 </v>
    <v>       0.37874372       0.87739619       0.12330048 </v>
    <v>       0.12930440       0.61829107       0.62701678 </v>
    <v>       0.12902508       0.87869024       0.86569771 </v>
    <v>       0.38067754       0.63394949       0.87280287 </v>
    <v>       0.37019607       0.87807277       0.62657744 </v>
    <v>       0.62420807       0.12481635       0.11528328 </v>
    <v>       0.63031126       0.37407101       0.36729420 </v>
    <v>       0.87987634       0.12499407       0.38175514 </v>
    <v>       0.87178488       0.38151476       0.12496417 </v>
    <v>       0.62728503       0.12687103       0.62562884 </v>
    <v>       0.61946591       0.37656950       0.86949097 </v>
    <v>       0.87980347       0.12718920       0.87506835 </v>
    <v>       0.86596365       0.37872827       0.62936602 </v>
    <v>       0.62391766       0.62179716       0.12284318 </v>
    <v>       0.62289290       0.87034350       0.37118167 </v>
    <v>       0.86742668       0.62251640       0.36880605 </v>
    <v>       0.86917540       0.87208104       0.13106437 </v>
    <v>       0.62979322       0.62603945       0.62503555 </v>
    <v>       0.62212794       0.87774013       0.88101936 </v>
    <v>       0.87425411       0.62505941       0.87300397 </v>
    <v>       0.86977607       0.88117659       0.62510511 </v>
    <v>       0.99336934       0.00552705       0.99366702 </v>
    <v>       0.99943218       0.24774266       0.24827722 </v>
    <v>       0.24681966       0.99822002       0.24367260 </v>
    <v>       0.24822319       0.24575837       0.00331558 </v>
    <v>       0.00606369       0.01187038       0.50275586 </v>
    <v>       0.99920108       0.24654793       0.74462726 </v>
    <v>       0.24922369       0.00300327       0.75384205 </v>
    <v>       0.25155506       0.25135062       0.49906566 </v>
    <v>       0.99608739       0.49847785       0.99997386 </v>
    <v>       0.99673107       0.75182680       0.24064703 </v>
    <v>       0.25075429       0.49750398       0.25804498 </v>
    <v>       0.24625559       0.75505671       0.99304441 </v>
    <v>       0.99642739       0.49564401       0.50274863 </v>
    <v>       0.99634057       0.75658047       0.74604431 </v>
    <v>       0.25150371       0.49731774       0.75063714 </v>
    <v>       0.25536895       0.75048712       0.50658929 </v>
    <v>       0.50056800       0.99570211       0.99718444 </v>
    <v>       0.50595437       0.24733407       0.24024433 </v>
    <v>       0.75502041       0.00562018       0.26312540 </v>
    <v>       0.75194599       0.24262599       0.00229069 </v>
    <v>       0.49639069       0.00581993       0.49560217 </v>
    <v>       0.49804183       0.25375888       0.74872728 </v>
    <v>       0.74598983       0.99719860       0.74644175 </v>
    <v>       0.74908985       0.24734459       0.49654705 </v>
    <v>       0.50373075       0.50057137       0.99984926 </v>
    <v>       0.49744322       0.74513226       0.25642633 </v>
    <v>       0.75070335       0.50101134       0.25140059 </v>
    <v>       0.74752198       0.74813245       0.00842241 </v>
    <v>       0.50254223       0.49869810       0.50242382 </v>
    <v>       0.49984336       0.75177212       0.75323951 </v>
    <v>       0.74319375       0.49122861       0.74687059 </v>
    <v>       0.75102532       0.73814244       0.50204307 </v>
   </varray>
  </structure>
  <varray name="primitive_index" >
   <v type="int" >        1 </v>
   <v type="int" >        2 </v>
   <v type="int" >        3 </v>
   <v type="int" >        4 </v>
   <v type="int" >        5 </v>
   <v type="int" >        6 </v>
   <v type="int" >        7 </v>
   <v type="int" >        8 </v>
   <v type="int" >        9 </v>
   <v type="int" >       10 </v>
   <v type="int" >       11 </v>
   <v type="int" >       12 </v>
   <v type="int" >       13 </v>
   <v type="int" >       14 </v>
   <v type="int" >       15 </v>
   <v type="int" >       16 </v>
   <v type="int" >       17 </v>
   <v type="int" >       18 </v>
   <v type="int" >       19 </v>
   <v type="int" >       20 </v>
   <v type="int" >       21 </v>
   <v type="int" >       22 </v>
   <v type="int" >       23 </v>
   <v type="int" >       24 </v>
   <v type="int" >       25 </v>
   <v type="int" >       26 </v>
   <v type="int" >       27 </v>
   <v type="int" >       28 </v>
   <v type="int" >       29 </v>
   <v type="int" >       30 </v>
   <v type="int" >       31 </v>
   <v type="int" >       32 </v>
   <v type="int" >       33 </v>
   <v type="int" >       34 </v>
   <v type="int" >       35 </v>
   <v type="int" >       36 </v>
   <v type="int" >       37 </v>
   <v type="int" >       38 </v>
   <v type="int" >       39 </v>
   <v type="int" >       40 </v>
   <v type="int" >       41 </v>
   <v type="int" >       42 </v>
   <v type="int" >       43 </v>
   <v type="int" >       44 </v>
   <v type="int" >       45 </v>
   <v type="int" >       46 </v>
   <v type="int" >       47 </v>
   <v type="int" >       48 </v>
   <v type="int" >       49 </v>
   <v type="int" >       50 </v>
   <v type="int" >       51 </v>
   <v type="int" >       52 </v>
   <v type="int" >       53 </v>
   <v type="int" >       54 </v>
   <v type="int" >       55 </v>
   <v type="int" >       56 </v>
   <v type="int" >       57 </v>
   <v type="int" >       58 </v>
   <v type="int" >       59 </v>
   <v type="int" >       60 </v>
   <v type="int" >       61 </v>
   <v type="int" >       62 </v>
   <v type="int" >       63 </v>
   <v type="int" >       64 </v>
  </varray>
 </primitive_cell>
 <kpoints>
  <generation param="Monkhorst-Pack">
   <v type="int" name="divisions">       3        3        3 </v>
   <v name="usershift">      0.00000000       0.00000000       0.00000000 </v>
   <v name="genvec1">      0.33333333       0.00000000       0.00000000 </v>
   <v name="genvec2">      0.00000000       0.33333333       0.00000000 </v>
   <v name="genvec3">      0.00000000       0.00000000       0.33333333 </v>
   <v name="shift">      0.00000000       0.00000000       0.00000000 </v>
  </generation>
  <varray name="kpointlist" >
   <v>       0.00000000       0.00000000       0.00000000 </v>
   <v>       0.33333333       0.00000000       0.00000000 </v>
   <v>       0.00000000       0.33333333       0.00000000 </v>
   <v>       0.00000000       0.00000000       0.33333333 </v>
   <v>       0.33333333       0.33333333       0.00000000 </v>
   <v>       0.00000000       0.33333333       0.33333333 </v>
   <v>       0.33333333       0.00000000       0.33333333 </v>
   <v>      -0.33333333       0.33333333       0.00000000 </v>
   <v>      -0.33333333       0.00000000       0.33333333 </v>
   <v>       0.00000000      -0.33333333       0.33333333 </v>
   <v>       0.33333333       0.33333333       0.33333333 </v>
   <v>      -0.33333333       0.33333333       0.33333333 </v>
   <v>      -0.33333333      -0.33333333       0.33333333 </v>
   <v>       0.33333333      -0.33333333       0.33333333 </v>
  </varray>
  <varray name="weights" >
   <v>       0.03703704 </v>
   <v>       0.07407407 </v>
   <v>       0.07407407 </v>
   <v>       0.07407407 </v>
   <v>       0.07407407 </v>
   <v>       0.07407407 </v>
   <v>       0.07407407 </v>
   <v>       0.07407407 </v>
   <v>       0.07407407 </v>
   <v>       0.07407407 </v>
   <v>       0.07407407 </v>
   <v>       0.07407407 </v>
   <v>       0.07407407 </v>
   <v>       0.07407407 </v>
  </varray>
 </kpoints>
 <parameters>
  <separator name="general" >
   <i type="string" name="SYSTEM">unknown system</i>
   <i type="logical" name="LCOMPAT"> F  </i>
  </separator>
  <separator name="electronic" >
   <i type="string" name="PREC">normal</i>
   <i name="ENMAX">    400.00000000</i>
   <i name="ENAUG">    644.87300000</i>
   <i name="EDIFF">      0.00000001</i>
   <i type="int" name="IALGO">    38</i>
   <i type="int" name="IWAVPR">    10</i>
   <i type="int" name="NBANDS">   168</i>
   <i type="int" name="NBANDSLOW">    -1</i>
   <i type="int" name="NBANDSHIGH">    -1</i>
   <i name="NELECT">    256.00000000</i>
   <i type="int" name="TURBO">     0</i>
   <i type="int" name="IRESTART">     0</i>
   <i type="int" name="NREBOOT">     0</i>
   <i type="int" name="NMIN">     0</i>
   <i name="EREF">      0.00000000</i>
   <separator name="electronic smearing" >
    <i type="int" name="ISMEAR">     1</i>
    <i name="SIGMA">      0.20000000</i>
    <i name="KSPACING">      0.50000000</i>
    <i type="logical" name="KGAMMA"> T  </i>
    <i type="logical" name="KBLOWUP"> T  </i>
   </separator>
   <separator name="electronic projectors" >
    <i type="logical" name="LREAL"> F  </i>
    <v name="ROPT">      0.00000000      0.00000000</v>
    <i type="int" name="LMAXPAW">  -100</i>
    <i type="int" name="LMAXMIX">     2</i>
    <i type="logical" name="NLSPLINE"> F  </i>
   </separator>
   <separator name="electronic startup" >
    <i type="int" name="ISTART">     0</i>
    <i type="int" name="ICHARG">     2</i>
    <i type="int" name="INIWAV">     1</i>
   </separator>
   <separator name="electronic spin" >
    <i type="int" name="ISPIN">     1</i>
    <i type="logical" name="LNONCOLLINEAR"> F  </i>
    <v name="MAGMOM">      1.00000000      1.00000000      1.00000000      1.00000000      1.00000000      1.00000000      1.00000000      1.00000000      1.00000000      1.00000000      1.00000000      1.00000000      1.00000000      1.00000000      1.00000000      1.00000000      1.00000000      1.00000000      1.00000000      1.00000000
      1.00000000      1.00000000      1.00000000      1.00000000      1.00000000      1.00000000      1.00000000      1.00000000      1.00000000      1.00000000      1.00000000      1.00000000      1.00000000      1.00000000      1.00000000      1.00000000      1.00000000      1.00000000      1.00000000      1.00000000
      1.00000000      1.00000000      1.00000000      1.00000000      1.00000000      1.00000000      1.00000000      1.00000000      1.00000000      1.00000000      1.00000000      1.00000000      1.00000000      1.00000000      1.00000000      1.00000000      1.00000000      1.00000000      1.00000000      1.00000000
      1.00000000      1.00000000      1.00000000      1.00000000</v>
    <i name="NUPDOWN">     -1.00000000</i>
    <i type="logical" name="LSORBIT"> F  </i>
    <v name="SAXIS">      0.00000000      0.00000000      1.00000000</v>
    <i type="logical" name="LSPIRAL"> F  </i>
    <v name="QSPIRAL">      0.00000000      0.00000000      0.00000000</v>
    <i type="logical" name="LZEROZ"> F  </i>
   </separator>
   <separator name="electronic exchange-correlation" >
    <i type="logical" name="LASPH"> F  </i>
    <i type="logical" name="LMETAGGA"> F  </i>
   </separator>
   <separator name="electronic convergence" >
    <i type="int" name="NELM">    60</i>
    <i type="int" name="NELMDL">    -5</i>
    <i type="int" name="NELMIN">     2</i>
    <i name="ENINI">    400.00000000</i>
    <separator name="electronic convergence detail" >
     <i type="logical" name="LDIAG"> T  </i>
     <i type="logical" name="LSUBROT"> F  </i>
     <i name="WEIMIN">      0.00000000</i>
     <i name="EBREAK">      0.00000000</i>
     <i name="DEPER">      0.30000000</i>
     <i type="int" name="NRMM">     4</i>
     <i name="TIME">      0.40000000</i>
    </separator>
   </separator>
   <separator name="electronic mixer" >
    <i name="AMIX">      0.40000000</i>
    <i name="BMIX">      1.00000000</i>
    <i name="AMIN">      0.10000000</i>
    <i name="AMIX_MAG">      1.60000000</i>
    <i name="BMIX_MAG">      1.00000000</i>
    <separator name="electronic mixer details" >
     <i type="int" name="IMIX">     4</i>
     <i type="logical" name="MIXFIRST"> F  </i>
     <i type="int" name="MAXMIX">   -45</i>
     <i name="WC">    100.00000000</i>
     <i type="int" name="INIMIX">     1</i>
     <i type="int" name="MIXPRE">     1</i>
     <i type="int" name="MREMOVE">     5</i>
    </separator>
   </separator>
   <separator name="electronic dipolcorrection" >
    <i type="logical" name="LDIPOL"> F  </i>
    <i type="logical" name="LMONO"> F  </i>
    <i type="int" name="IDIPOL">     0</i>
    <i name="EPSILON">      1.00000000</i>
    <v name="DIPOL">   -100.00000000   -100.00000000   -100.00000000</v>
    <i name="EFIELD">      0.00000000</i>
   </separator>
  </separator>
  <separator name="grids" >
   <i type="int" name="NGX">    48</i>
   <i type="int" name="NGY">    48</i>
   <i type="int" name="NGZ">    48</i>
   <i type="int" name="NGXF">    96</i>
   <i type="int" name="NGYF">    96</i>
   <i type="int" name="NGZF">    96</i>
   <i type="logical" name="ADDGRID"> F  </i>
  </separator>
  <separator name="ionic" >
   <i type="int" name="NSW">     0</i>
   <i type="int" name="IBRION">    -1</i>
   <i type="int" name="MDALGO">     0</i>
   <i type="int" name="ISIF">     3</i>
   <i name="PSTRESS">      0.00000000</i>
   <i name="EDIFFG">      0.00000010</i>
   <i type="int" name="NFREE">     0</i>
   <i name="POTIM">      0.50000000</i>
   <i name="SMASS">     -3.00000000</i>
   <i name="SCALEE">      1.00000000</i>
  </separator>
  <separator name="ionic md" >
   <i name="TEBEG">      0.00010000</i>
   <i name="TEEND">      0.00010000</i>
   <i type="int" name="NBLOCK">     1</i>
   <i type="int" name="KBLOCK">     1</i>
   <i type="int" name="NPACO">   256</i>
   <i name="APACO">     16.00000000</i>
  </separator>
  <separator name="symmetry" >
   <i type="int" name="ISYM">     0</i>
   <i name="SYMPREC">      0.00001000</i>
  </separator>
  <separator name="dos" >
   <i type="int" name="LORBIT">     0</i>
   <v name="RWIGS">     -1.00000000     -1.00000000</v>
   <i type="int" name="NEDOS">   301</i>
   <i name="EMIN">     10.00000000</i>
   <i name="EMAX">    -10.00000000</i>
   <i name="EFERMI">      0.00000000</i>
  </separator>
  <separator name="writing" >
   <i type="int" name="NWRITE">     2</i>
   <i type="logical" name="LWAVE"> F  </i>
   <i type="logical" name="LDOWNSAMPLE"> F  </i>
   <i type="logical" name="LCHARG"> F  </i>
   <i type="logical" name="LPARD"> F  </i>
   <i type="logical" name="LVTOT"> F  </i>
   <i type="logical" name="LVHAR"> F  </i>
   <i type="logical" name="LELF"> F  </i>
   <i type="logical" name="LOPTICS"> F  </i>
   <v name="STM">      0.00000000      0.00000000      0.00000000      0.00000000      0.00000000      0.00000000      0.00000000</v>
  </separator>
  <separator name="performance" >
   <i type="int" name="NPAR">     8</i>
   <i type="int" name="NSIM">     4</i>
   <i type="int" name="NBLK">    -1</i>
   <i type="logical" name="LPLANE"> T  </i>
   <i type="logical" name="LSCALAPACK"> T  </i>
   <i type="logical" name="LSCAAWARE"> F  </i>
   <i type="logical" name="LSCALU"> F  </i>
   <i type="logical" name="LASYNC"> F  </i>
   <i type="logical" name="LORBITALREAL"> F  </i>
  </separator>
  <separator name="miscellaneous" >
   <i type="int" name="IDIOT">     3</i>
   <i type="int" name="PHON_NSTRUCT">    -1</i>
   <i type="logical" name="LMUSIC"> F  </i>
   <v name="POMASS">     12.01100000     28.08500000</v>
   <v name="DARWINR">      0.00000000      0.00000000</v>
   <v name="DARWINV">      1.00000000      1.00000000</v>
   <i type="logical" name="LCORR"> T  </i>
  </separator>
  <i type="logical" name="GGA_COMPAT"> T  </i>
  <i type="logical" name="LBERRY"> F  </i>
  <i type="int" name="ICORELEVEL">     0</i>
  <i type="logical" name="LDAU"> F  </i>
  <i type="int" name="I_CONSTRAINED_M">     0</i>
  <separator name="electronic exchange-correlation" >
   <i type="string" name="GGA">PE</i>
   <i type="int" name="VOSKOWN">     0</i>
   <i type="logical" name="LHFCALC"> F  </i>
   <i type="string" name="PRECFOCK"></i>
   <i type="logical" name="LSYMGRAD"> F  </i>
   <i type="logical" name="LHFONE"> F  </i>
   <i type="logical" name="LRHFCALC"> F  </i>
   <i type="logical" name="LTHOMAS"> F  </i>
   <i type="logical" name="LMODELHF"> F  </i>
   <i type="logical" name="LFOCKACE"> F  </i>
   <i name="ENCUT4O">     -1.00000000</i>
   <i type="int" name="EXXOEP">     0</i>
   <i type="int" name="FOURORBIT">     0</i>
   <i name="AEXX">      0.00000000</i>
   <i name="HFALPHA">      0.00000000</i>
   <i name="MCALPHA">      0.00000000</i>
   <i name="ALDAX">      1.00000000</i>
   <i name="AGGAX">      1.00000000</i>
   <i name="ALDAC">      1.00000000</i>
   <i name="AGGAC">      1.00000000</i>
   <i type="int" name="NKREDX">     1</i>
   <i type="int" name="NKREDY">     1</i>
   <i type="int" name="NKREDZ">     1</i>
   <i type="logical" name="SHIFTRED"> F  </i>
   <i type="logical" name="ODDONLY"> F  </i>
   <i type="logical" name="EVENONLY"> F  </i>
   <i type="int" name="LMAXFOCK">     0</i>
   <i type="int" name="NMAXFOCKAE">     0</i>
   <i type="logical" name="LFOCKAEDFT"> F  </i>
   <i name="HFSCREEN">      0.00000000</i>
   <i name="HFSCREENC">      0.00000000</i>
   <i type="int" name="NBANDSGWLOW">     0</i>
  </separator>
  <separator name="vdW DFT" >
   <i type="logical" name="LUSE_VDW"> F  </i>
   <i name="Zab_VDW">     -0.84910000</i>
   <i name="PARAM1">      0.12340000</i>
   <i name="PARAM2">      1.00000000</i>
   <i name="PARAM3">      0.00000000</i>
  </separator>
  <separator name="model GW" >
   <i type="int" name="MODEL_GW">     0</i>
   <i name="MODEL_EPS0">      6.26613487</i>
   <i name="MODEL_ALPHA">      1.00000000</i>
  </separator>
  <separator name="linear response parameters" >
   <i type="logical" name="LEPSILON"> F  </i>
   <i type="logical" name="LRPA"> F  </i>
   <i type="logical" name="LNABLA"> F  </i>
   <i type="logical" name="LVEL"> F  </i>
   <i type="int" name="KINTER">     0</i>
   <i name="CSHIFT">      0.10000000</i>
   <i name="OMEGAMAX">     -1.00000000</i>
   <i name="DEG_THRESHOLD">      0.00200000</i>
   <i name="RTIME">     -0.10000000</i>
   <i name="WPLASMAI">      0.00000000</i>
   <v name="DFIELD">      0.00000000      0.00000000      0.00000000</v>
   <v name="WPLASMA">      0.00000000      0.00000000      0.00000000      0.00000000      0.00000000      0.00000000      0.00000000      0.00000000      0.00000000</v>
  </separator>
  <separator name="orbital magnetization" >
   <i type="logical" name="NUCIND"> F  </i>
   <v name="MAGPOS">      0.00000000      0.00000000      0.00000000</v>
   <i type="logical" name="LNICSALL"> T  </i>
   <i type="logical" name="ORBITALMAG"> F  </i>
   <i type="logical" name="LMAGBLOCH"> F  </i>
   <i type="logical" name="LCHIMAG"> F  </i>
   <i type="logical" name="LGAUGE"> T  </i>
   <i type="int" name="MAGATOM">     0</i>
   <v name="MAGDIPOL">      0.00000000      0.00000000      0.00000000</v>
   <v name="AVECCONST">      0.00000000      0.00000000      0.00000000</v>
  </separator>
  <separator name="response functions" >
   <i type="logical" name="LFINITE_TEMPERATURE"> F  </i>
   <i type="logical" name="LADDER"> F  </i>
   <i type="logical" name="LRPAFORCE"> F  </i>
   <i type="logical" name="LFXC"> F  </i>
   <i type="logical" name="LHARTREE"> T  </i>
   <i type="int" name="IBSE">     0</i>
   <v type="int" name="KPOINT">    -1     0     0     0</v>
   <i type="logical" name="LTCTC"> F  </i>
   <i type="logical" name="LTCTE"> F  </i>
   <i type="logical" name="LTETE"> F  </i>
   <i type="logical" name="LTRIPLET"> F  </i>
   <i type="logical" name="LFXCEPS"> F  </i>
   <i type="logical" name="LFXHEG"> F  </i>
   <i type="int" name="NATURALO">     2</i>
   <i type="logical" name="LHOLEGF"> F  </i>
   <i type="logical" name="L2ORDER"> F  </i>
   <i type="logical" name="LDMP1"> F  </i>
   <i type="logical" name="LMP2LT"> F  </i>
   <i type="logical" name="LSMP2LT"> F  </i>
   <i type="logical" name="LGWLF"> F  </i>
   <i name="ENCUTGW">     -2.00000000</i>
   <i name="ENCUTGWSOFT">     -2.00000000</i>
   <i name="ENCUTLF">     -1.00000000</i>
   <i type="logical" name="LESF_SPLINES"> F  </i>
   <i type="int" name="LMAXMP2">    -1</i>
   <i name="SCISSOR">      0.00000000</i>
   <i type="int" name="NOMEGA">     0</i>
   <i type="int" name="NOMEGAR">     0</i>
   <i type="int" name="NBANDSGW">    -1</i>
   <i type="int" name="NBANDSO">    -1</i>
   <i type="int" name="NBANDSV">    -1</i>
   <i type="int" name="NELM">    60</i>
   <i type="int" name="NELMHF">     1</i>
   <i type="int" name="DIM">     3</i>
   <i type="int" name="IESPILON">     4</i>
   <i type="int" name="ANTIRES">     0</i>
   <i name="OMEGAMAX">    -30.00000000</i>
   <i name="OMEGAMIN">    -30.00000000</i>
   <i name="OMEGATL">   -200.00000000</i>
   <i type="int" name="OMEGAGRID">     0</i>
   <i name="CSHIFT">     -0.10000000</i>
   <i type="logical" name="LSELFENERGY"> F  </i>
   <i type="logical" name="LSPECTRAL"> F  </i>
   <i type="logical" name="LSPECTRALGW"> F  </i>
   <i type="logical" name="LSINGLES"> F  </i>
   <i type="logical" name="LFERMIGW"> F  </i>
   <i type="logical" name="ODDONLYGW"> F  </i>
   <i type="logical" name="EVENONLYGW"> F  </i>
   <i type="int" name="NKREDLFX">     1</i>
   <i type="int" name="NKREDLFY">     1</i>
   <i type="int" name="NKREDLFZ">     1</i>
   <i type="int" name="MAXMEM">  2800</i>
   <i type="int" name="TELESCOPE">     0</i>
   <i type="int" name="NTAUPAR">    -1</i>
   <i type="int" name="NOMEGAPAR">    -1</i>
   <i name="DAMP_NEWTON">      0.80000001</i>
   <i name="LAMBDA">      1.00000000</i>
  </separator>
  <separator name="External order field" >
   <i name="OFIELD_KAPPA">      0.00000000</i>
   <v name="OFIELD_K">      0.00000000      0.00000000      0.00000000</v>
   <i name="OFIELD_Q6_NEAR">      0.00000000</i>
   <i name="OFIELD_Q6_FAR">      0.00000000</i>
   <i name="OFIELD_A">      0.00000000</i>
  </separator>
 </parameters>
 <atominfo>
  <atoms>      64 </atoms>
  <types>       2 </types>
  <array name="atoms" >
   <dimension dim="1">ion</dimension>
   <field type="string">element</field>
   <field type="int">atomtype</field>
   <set>
    <rc><c>C </c><c>   1</c></rc>
    <rc><c>C </c><c>   1</c></rc>
    <rc><c>C </c><c>   1</c></rc>
    <rc><c>C </c><c>   1</c></rc>
    <rc><c>C </c><c>   1</c></rc>
    <rc><c>C </c><c>   1</c></rc>
    <rc><c>C </c><c>   1</c></rc>
    <rc><c>C </c><c>   1</c></rc>
    <rc><c>C </c><c>   1</c></rc>
    <rc><c>C </c><c>   1</c></rc>
    <rc><c>C </c><c>   1</c></rc>
    <rc><c>C </c><c>   1</c></rc>
    <rc><c>C </c><c>   1</c></rc>
    <rc><c>C </c><c>   1</c></rc>
    <rc><c>C </c><c>   1</c></rc>
    <rc><c>C </c><c>   1</c></rc>
    <rc><c>C </c><c>   1</c></rc>
    <rc><c>C </c><c>   1</c></rc>
    <rc><c>C </c><c>   1</c></rc>
    <rc><c>C </c><c>   1</c></rc>
    <rc><c>C </c><c>   1</c></rc>
    <rc><c>C </c><c>   1</c></rc>
    <rc><c>C </c><c>   1</c></rc>
    <rc><c>C </c><c>   1</c></rc>
    <rc><c>C </c><c>   1</c></rc>
    <rc><c>C </c><c>   1</c></rc>
    <rc><c>C </c><c>   1</c></rc>
    <rc><c>C </c><c>   1</c></rc>
    <rc><c>C </c><c>   1</c></rc>
    <rc><c>C </c><c>   1</c></rc>
    <rc><c>C </c><c>   1</c></rc>
    <rc><c>C </c><c>   1</c></rc>
    <rc><c>Si</c><c>   2</c></rc>
    <rc><c>Si</c><c>   2</c></rc>
    <rc><c>Si</c><c>   2</c></rc>
    <rc><c>Si</c><c>   2</c></rc>
    <rc><c>Si</c><c>   2</c></rc>
    <rc><c>Si</c><c>   2</c></rc>
    <rc><c>Si</c><c>   2</c></rc>
    <rc><c>Si</c><c>   2</c></rc>
    <rc><c>Si</c><c>   2</c></rc>
    <rc><c>Si</c><c>   2</c></rc>
    <rc><c>Si</c><c>   2</c></rc>
    <rc><c>Si</c><c>   2</c></rc>
    <rc><c>Si</c><c>   2</c></rc>
    <rc><c>Si</c><c>   2</c></rc>
    <rc><c>Si</c><c>   2</c></rc>
    <rc><c>Si</c><c>   2</c></rc>
    <rc><c>Si</c><c>   2</c></rc>
    <rc><c>Si</c><c>   2</c></rc>
    <rc><c>Si</c><c>   2</c></rc>
    <rc><c>Si</c><c>   2</c></rc>
    <rc><c>Si</c><c>   2</c></rc>
    <rc><c>Si</c><c>   2</c></rc>
    <rc><c>Si</c><c>   2</c></rc>
    <rc><c>Si</c><c>   2</c></rc>
    <rc><c>Si</c><c>   2</c></rc>
    <rc><c>Si</c><c>   2</c></rc>
    <rc><c>Si</c><c>   2</c></rc>
    <rc><c>Si</c><c>   2</c></rc>
    <rc><c>Si</c><c>   2</c></rc>
    <rc><c>Si</c><c>   2</c></rc>
    <rc><c>Si</c><c>   2</c></rc>
    <rc><c>Si</c><c>   2</c></rc>
   </set>
  </array>
  <array name="atomtypes" >
   <dimension dim="1">type</dimension>
   <field type="int">atomspertype</field>
   <field type="string">element</field>
   <field>mass</field>
   <field>valence</field>
   <field type="string">pseudopotential</field>
   <set>
    <rc><c>  32</c><c>C </c><c>     12.01100000</c><c>      4.00000000</c><c>  PAW_PBE C 08Apr2002                   </c></rc>
    <rc><c>  32</c><c>Si</c><c>     28.08500000</c><c>      4.00000000</c><c>  PAW_PBE Si 05Jan2001                  </c></rc>
   </set>
  </array>
 </atominfo>
 <structure name="initialpos" >
  <crystal>
   <varray name="basis" >
    <v>       8.74331558       0.00000000       0.00000000 </v>
    <v>       0.00000000       8.74331558       0.00000000 </v>
    <v>       0.00000000       0.00000000       8.74331558 </v>
   </varray>
   <i name="volume">    668.38771987 </i>
   <varray name="rec_basis" >
    <v>       0.11437309       0.00000000       0.00000000 </v>
    <v>       0.00000000       0.11437309       0.00000000 </v>
    <v>       0.00000000       0.00000000       0.11437309 </v>
   </varray>
  </crystal>
  <varray name="positions" >
   <v>       0.12795314       0.12592627       0.11908772 </v>
   <v>       0.12638152       0.36623136       0.37031329 </v>
   <v>       0.36718876       0.11999985       0.37509526 </v>
   <v>       0.37243653       0.38300150       0.12864487 </v>
   <v>       0.12922807       0.12224299       0.63127296 </v>
   <v>       0.12047128       0.37988589       0.87523170 </v>
   <v>       0.37813410       0.11962484       0.86957692 </v>
   <v>       0.37127081       0.37267677       0.62397572 </v>
   <v>       0.12541854       0.63144344       0.12549403 </v>
   <v>       0.12058468       0.87184918       0.37920241 </v>
   <v>       0.37351819       0.63085588       0.37577085 </v>
   <v>       0.37874372       0.87739619       0.12330048 </v>
   <v>       0.12930440       0.61829107       0.62701678 </v>
   <v>       0.12902508       0.87869024       0.86569771 </v>
   <v>       0.38067754       0.63394949       0.87280287 </v>
   <v>       0.37019607       0.87807277       0.62657744 </v>
   <v>       0.62420807       0.12481635       0.11528328 </v>
   <v>       0.63031126       0.37407101       0.36729420 </v>
   <v>       0.87987634       0.12499407       0.38175514 </v>
   <v>       0.87178488       0.38151476       0.12496417 </v>
   <v>       0.62728503       0.12687103       0.62562884 </v>
   <v>       0.61946591       0.37656950       0.86949097 </v>
   <v>       0.87980347       0.12718920       0.87506835 </v>
   <v>       0.86596365       0.37872827       0.62936602 </v>
   <v>       0.62391766       0.62179716       0.12284318 </v>
   <v>       0.62289290       0.87034350       0.37118167 </v>
   <v>       0.86742668       0.62251640       0.36880605 </v>
   <v>       0.86917540       0.87208104       0.13106437 </v>
   <v>       0.62979322       0.62603945       0.62503555 </v>
   <v>       0.62212794       0.87774013       0.88101936 </v>
   <v>       0.87425411       0.62505941       0.87300397 </v>
   <v>       0.86977607       0.88117659       0.62510511 </v>
   <v>       0.99336934       0.00552705       0.99366702 </v>
   <v>       0.99943218       0.24774266       0.24827722 </v>
   <v>       0.24681966       0.99822002       0.24367260 </v>
   <v>       0.24822319       0.24575837       0.00331558 </v>
   <v>       0.00606369       0.01187038       0.50275586 </v>
   <v>       0.99920108       0.24654793       0.74462726 </v>
   <v>       0.24922369       0.00300327       0.75384205 </v>
   <v>       0.25155506       0.25135062       0.49906566 </v>
   <v>       0.99608739       0.49847785       0.99997386 </v>
   <v>       0.99673107       0.75182680       0.24064703 </v>
   <v>       0.25075429       0.49750398       0.25804498 </v>
   <v>       0.24625559       0.75505671       0.99304441 </v>
   <v>       0.99642739       0.49564401       0.50274863 </v>
   <v>       0.99634057       0.75658047       0.74604431 </v>
   <v>       0.25150371       0.49731774       0.75063714 </v>
   <v>       0.25536895       0.75048712       0.50658929 </v>
   <v>       0.50056800       0.99570211       0.99718444 </v>
   <v>       0.50595437       0.24733407       0.24024433 </v>
   <v>       0.75502041       0.00562018       0.26312540 </v>
   <v>       0.75194599       0.24262599       0.00229069 </v>
   <v>       0.49639069       0.00581993       0.49560217 </v>
   <v>       0.49804183       0.25375888       0.74872728 </v>
   <v>       0.74598983       0.99719860       0.74644175 </v>
   <v>       0.74908985       0.24734459       0.49654705 </v>
   <v>       0.50373075       0.50057137       0.99984926 </v>
   <v>       0.49744322       0.74513226       0.25642633 </v>
   <v>       0.75070335       0.50101134       0.25140059 </v>
   <v>       0.74752198       0.74813245       0.00842241 </v>
   <v>       0.50254223       0.49869810       0.50242382 </v>
   <v>       0.49984336       0.75177212       0.75323951 </v>
   <v>       0.74319375       0.49122861       0.74687059 </v>
   <v>       0.75102532       0.73814244       0.50204307 </v>
  </varray>
 </structure>
 <calculation>
  <scstep>
   <time name="dav">   20.59   20.62</time>
   <time name="total">   20.95   20.98</time>
   <energy>
    <i name="alphaZ">    354.85177120 </i>
    <i name="ewald">  -9070.74455366 </i>
    <i name="hartreedc">   -677.17548368 </i>
    <i name="XCdc">    145.93869678 </i>
    <i name="pawpsdc">   6292.66707184 </i>
    <i name="pawaedc">  -5747.90303932 </i>
    <i name="eentropy">      0.00113488 </i>
    <i name="bandstr">   1368.15892141 </i>
    <i name="atom">   8006.17504320 </i>
    <i name="e_fr_energy">    671.96956265 </i>
    <i name="e_wo_entrp">    671.96842777 </i>
    <i name="e_0_energy">    671.96918436 </i>
   </energy>
  </scstep>
  <scstep>
   <time name="dav">   17.96   18.05</time>
   <time name="total">   17.97   18.06</time>
   <energy>
    <i name="e_fr_energy">   -460.17120006 </i>
    <i name="e_wo_entrp">   -460.17602181 </i>
    <i name="e_0_energy">   -460.17280731 </i>
   </energy>
  </scstep>
  <scstep>
   <time name="dav">   15.26   15.35</time>
   <time name="total">   15.26   15.35</time>
   <energy>
    <i name="e_fr_energy">   -535.92340668 </i>
    <i name="e_wo_entrp">   -535.94758428 </i>
    <i name="e_0_energy">   -535.93146588 </i>
   </energy>
  </scstep>
  <scstep>
   <time name="dav">   15.50   15.55</time>
   <time name="total">   15.51   15.56</time>
   <energy>
    <i name="e_fr_energy">   -537.61691379 </i>
    <i name="e_wo_entrp">   -537.64158914 </i>
    <i name="e_0_energy">   -537.62513891 </i>
   </energy>
  </scstep>
  <scstep>
   <time name="dav">   14.92   14.96</time>
   <time name="total">   15.16   15.19</time>
   <energy>
    <i name="e_fr_energy">   -537.66424302 </i>
    <i name="e_wo_entrp">   -537.68890022 </i>
    <i name="e_0_energy">   -537.67246209 </i>
   </energy>
  </scstep>
  <scstep>
   <time name="dav">   14.34   14.36</time>
   <time name="total">   14.65   14.68</time>
   <energy>
    <i name="e_fr_energy">   -480.13857678 </i>
    <i name="e_wo_entrp">   -480.15168810 </i>
    <i name="e_0_energy">   -480.14294722 </i>
   </energy>
  </scstep>
  <scstep>
   <time name="dav">   15.40   15.43</time>
   <time name="total">   15.78   15.83</time>
   <energy>
    <i name="e_fr_energy">   -478.83362092 </i>
    <i name="e_wo_entrp">   -478.84507956 </i>
    <i name="e_0_energy">   -478.83744047 </i>
   </energy>
  </scstep>
  <scstep>
   <time name="dav">   14.73   14.76</time>
   <time name="total">   15.10   15.17</time>
   <energy>
    <i name="e_fr_energy">   -478.59674077 </i>
    <i name="e_wo_entrp">   -478.60842923 </i>
    <i name="e_0_energy">   -478.60063692 </i>
   </energy>
  </scstep>
  <scstep>
   <time name="dav">   14.81   14.83</time>
   <time name="total">   15.14   15.17</time>
   <energy>
    <i name="e_fr_energy">   -478.58013307 </i>
    <i name="e_wo_entrp">   -478.59168228 </i>
    <i name="e_0_energy">   -478.58398280 </i>
   </energy>
  </scstep>
  <scstep>
   <time name="dav">   15.38   15.40</time>
   <time name="total">   15.72   15.76</time>
   <energy>
    <i name="e_fr_energy">   -478.58202589 </i>
    <i name="e_wo_entrp">   -478.59358385 </i>
    <i name="e_0_energy">   -478.58587854 </i>
   </energy>
  </scstep>
  <scstep>
   <time name="dav">   14.64   14.66</time>
   <time name="total">   15.00   15.04</time>
   <energy>
    <i name="e_fr_energy">   -478.58354820 </i>
    <i name="e_wo_entrp">   -478.59510916 </i>
    <i name="e_0_energy">   -478.58740185 </i>
   </energy>
  </scstep>
  <scstep>
   <time name="dav">   18.22   18.67</time>
   <time name="total">   18.69   19.23</time>
   <energy>
    <i name="e_fr_energy">   -478.58370059 </i>
    <i name="e_wo_entrp">   -478.59525359 </i>
    <i name="e_0_energy">   -478.58755159 </i>
   </energy>
  </scstep>
  <scstep>
   <time name="dav">   14.98   15.13</time>
   <time name="total">   15.31   15.47</time>
   <energy>
    <i name="e_fr_energy">   -478.58372462 </i>
    <i name="e_wo_entrp">   -478.59527941 </i>
    <i name="e_0_energy">   -478.58757622 </i>
   </energy>
  </scstep>
  <scstep>
   <time name="dav">   15.64   15.66</time>
   <time name="total">   15.98   16.01</time>
   <energy>
    <i name="e_fr_energy">   -478.58372718 </i>
    <i name="e_wo_entrp">   -478.59528163 </i>
    <i name="e_0_energy">   -478.58757866 </i>
   </energy>
  </scstep>
  <scstep>
   <time name="dav">   14.73   14.76</time>
   <time name="total">   15.41   15.45</time>
   <energy>
    <i name="e_fr_energy">   -478.58372914 </i>
    <i name="e_wo_entrp">   -478.59528401 </i>
    <i name="e_0_energy">   -478.58758076 </i>
   </energy>
  </scstep>
  <scstep>
   <time name="dav">   16.31   16.34</time>
   <time name="total">   16.88   17.07</time>
   <energy>
    <i name="e_fr_energy">   -478.58372946 </i>
    <i name="e_wo_entrp">   -478.59528421 </i>
    <i name="e_0_energy">   -478.58758105 </i>
   </energy>
  </scstep>
  <scstep>
   <time name="dav">   14.08   14.11</time>
   <time name="total">   14.44   14.47</time>
   <energy>
    <i name="e_fr_energy">   -478.58372984 </i>
    <i name="e_wo_entrp">   -478.59528450 </i>
    <i name="e_0_energy">   -478.58758139 </i>
   </energy>
  </scstep>
  <scstep>
   <time name="dav">    9.24    9.26</time>
   <time name="total">    9.31    9.34</time>
   <energy>
    <i name="alphaZ">    354.85177120 </i>
    <i name="ewald">  -9070.74455366 </i>
    <i name="hartreedc">  -1031.18346212 </i>
    <i name="XCdc">    179.41334893 </i>
    <i name="pawpsdc">  33313.30528120 </i>
    <i name="pawaedc"> -32774.32961384 </i>
    <i name="eentropy">      0.01155467 </i>
    <i name="bandstr">    543.91690059 </i>
    <i name="atom">   8006.17504320 </i>
    <i name="e_fr_energy">   -478.58372983 </i>
    <i name="e_wo_entrp">   -478.59528450 </i>
    <i name="e_0_energy">   -478.58758139 </i>
   </energy>
  </scstep>
  <structure>
   <crystal>
    <varray name="basis" >
     <v>       8.74331558       0.00000000       0.00000000 </v>
     <v>       0.00000000       8.74331558       0.00000000 </v>
     <v>       0.00000000       0.00000000       8.74331558 </v>
    </varray>
    <i name="volume">    668.38771987 </i>
    <varray name="rec_basis" >
     <v>       0.11437309       0.00000000       0.00000000 </v>
     <v>       0.00000000       0.11437309       0.00000000 </v>
     <v>       0.00000000       0.00000000       0.11437309 </v>
    </varray>
   </crystal>
   <varray name="positions" >
    <v>       0.12795314       0.12592627       0.11908772 </v>
    <v>       0.12638152       0.36623136       0.37031329 </v>
    <v>       0.36718876       0.11999985       0.37509526 </v>
    <v>       0.37243653       0.38300150       0.12864487 </v>
    <v>       0.12922807       0.12224299       0.63127296 </v>
    <v>       0.12047128       0.37988589       0.87523170 </v>
    <v>       0.37813410       0.11962484       0.86957692 </v>
    <v>       0.37127081       0.37267677       0.62397572 </v>
    <v>       0.12541854       0.63144344       0.12549403 </v>
    <v>       0.12058468       0.87184918       0.37920241 </v>
    <v>       0.37351819       0.63085588       0.37577085 </v>
    <v>       0.37874372       0.87739619       0.12330048 </v>
    <v>       0.12930440       0.61829107       0.62701678 </v>
    <v>       0.12902508       0.87869024       0.86569771 </v>
    <v>       0.38067754       0.63394949       0.87280287 </v>
    <v>       0.37019607       0.87807277       0.62657744 </v>
    <v>       0.62420807       0.12481635       0.11528328 </v>
    <v>       0.63031126       0.37407101       0.36729420 </v>
    <v>       0.87987634       0.12499407       0.38175514 </v>
    <v>       0.87178488       0.38151476       0.12496417 </v>
    <v>       0.62728503       0.12687103       0.62562884 </v>
    <v>       0.61946591       0.37656950       0.86949097 </v>
    <v>       0.87980347       0.12718920       0.87506835 </v>
    <v>       0.86596365       0.37872827       0.62936602 </v>
    <v>       0.62391766       0.62179716       0.12284318 </v>
    <v>       0.62289290       0.87034350       0.37118167 </v>
    <v>       0.86742668       0.62251640       0.36880605 </v>
    <v>       0.86917540       0.87208104       0.13106437 </v>
    <v>       0.62979322       0.62603945       0.62503555 </v>
    <v>       0.62212794       0.87774013       0.88101936 </v>
    <v>       0.87425411       0.62505941       0.87300397 </v>
    <v>       0.86977607       0.88117659       0.62510511 </v>
    <v>       0.99336934       0.00552705       0.99366702 </v>
    <v>       0.99943218       0.24774266       0.24827722 </v>
    <v>       0.24681966       0.99822002       0.24367260 </v>
    <v>       0.24822319       0.24575837       0.00331558 </v>
    <v>       0.00606369       0.01187038       0.50275586 </v>
    <v>       0.99920108       0.24654793       0.74462726 </v>
    <v>       0.24922369       0.00300327       0.75384205 </v>
    <v>       0.25155506       0.25135062       0.49906566 </v>
    <v>       0.99608739       0.49847785       0.99997386 </v>
    <v>       0.99673107       0.75182680       0.24064703 </v>
    <v>       0.25075429       0.49750398       0.25804498 </v>
    <v>       0.24625559       0.75505671       0.99304441 </v>
    <v>       0.99642739       0.49564401       0.50274863 </v>
    <v>       0.99634057       0.75658047       0.74604431 </v>
    <v>       0.25150371       0.49731774       0.75063714 </v>
    <v>       0.25536895       0.75048712       0.50658929 </v>
    <v>       0.50056800       0.99570211       0.99718444 </v>
    <v>       0.50595437       0.24733407       0.24024433 </v>
    <v>       0.75502041       0.00562018       0.26312540 </v>
    <v>       0.75194599       0.24262599       0.00229069 </v>
    <v>       0.49639069       0.00581993       0.49560217 </v>
    <v>       0.49804183       0.25375888       0.74872728 </v>
    <v>       0.74598983       0.99719860       0.74644175 </v>
    <v>       0.74908985       0.24734459       0.49654705 </v>
    <v>       0.50373075       0.50057137       0.99984926 </v>
    <v>       0.49744322       0.74513226       0.25642633 </v>
    <v>       0.75070335       0.50101134       0.25140059 </v>
    <v>       0.74752198       0.74813245       0.00842241 </v>
    <v>       0.50254223       0.49869810       0.50242382 </v>
    <v>       0.49984336       0.75177212       0.75323951 </v>
    <v>       0.74319375       0.49122861       0.74687059 </v>
    <v>       0.75102532       0.73814244       0.50204307 </v>
   </varray>
  </structure>
  <varray name="forces" >
   <v>      -1.71415420      -0.86664382       0.93316187 </v>
   <v>      -0.74560327       1.03441173       1.24759179 </v>
   <v>       1.15027826       1.26395482      -1.00361611 </v>
   <v>       0.67086694      -1.51400721      -0.86384968 </v>
   <v>      -0.34321435       1.62870674      -1.08705309 </v>
   <v>       0.82859511      -1.50521925      -0.11676986 </v>
   <v>      -0.21724728       1.41183175       1.25741154 </v>
   <v>       0.83481519       0.50487194      -0.12864695 </v>
   <v>       0.08000373      -1.27852064      -0.46135241 </v>
   <v>       0.32174937       0.61128770      -0.65263210 </v>
   <v>       0.14958934      -1.75406729       1.07856137 </v>
   <v>      -0.90123642      -0.69520330       0.19858613 </v>
   <v>      -1.04634872       1.03777906      -0.64457652 </v>
   <v>      -1.87518681      -0.23909711       1.47738927 </v>
   <v>      -1.18798551      -2.02368630       0.55630650 </v>
   <v>       1.38050255       0.22715738       0.18106883 </v>
   <v>       0.60949988      -0.65952028       1.76804058 </v>
   <v>      -1.09043868      -0.64170043       1.16038106 </v>
   <v>      -0.17179492       1.05849400      -0.90386939 </v>
   <v>       0.30826367      -1.88727074       0.12599046 </v>
   <v>      -0.86117450       0.07027281      -0.65265617 </v>
   <v>       0.50002525      -0.95622834       1.28988010 </v>
   <v>      -1.67115091      -0.03696468      -1.04004808 </v>
   <v>       1.58245496      -2.00129766      -1.62268199 </v>
   <v>      -0.09594127       0.14786168       1.25211002 </v>
   <v>       0.49707520       0.90309819       1.43827413 </v>
   <v>       2.04694952       0.25670622       1.15632322 </v>
   <v>       0.41649896       1.99893305      -1.10637473 </v>
   <v>      -1.50200998      -0.85524639       0.61943521 </v>
   <v>       1.22985439      -0.97740363      -1.24504789 </v>
   <v>      -0.62188830       0.17654189       0.21635866 </v>
   <v>       0.88309802      -0.87493064      -0.93355991 </v>
   <v>       1.47664134      -1.89698446       1.15399657 </v>
   <v>       0.07133214       0.46974316      -0.62128959 </v>
   <v>       0.12440258      -0.71867609       1.04419264 </v>
   <v>       0.95472369       1.73815467      -1.48059195 </v>
   <v>      -0.28558643      -2.95919794       0.12415425 </v>
   <v>       0.11265622       1.43954655       1.11507719 </v>
   <v>       0.92780723      -0.56788230      -0.96355118 </v>
   <v>      -0.33360421      -0.94349328      -0.01158659 </v>
   <v>       0.64159271       1.29024314      -0.24720629 </v>
   <v>       0.62135157      -0.38299383       2.36109179 </v>
   <v>      -0.49396042       1.38533278      -1.20368004 </v>
   <v>       0.93007823      -0.42114802       0.96851526 </v>
   <v>       0.42200515       0.61429767      -0.71493879 </v>
   <v>       0.44441180      -1.27264408       0.27324927 </v>
   <v>      -0.12441892       0.76886293       0.75782691 </v>
   <v>      -1.61177339       0.00522168      -0.74384723 </v>
   <v>      -0.50474176       0.72690554       0.44108197 </v>
   <v>      -1.54078386       0.62341158       1.11799108 </v>
   <v>      -1.34292478      -1.78880544      -1.94512629 </v>
   <v>      -0.06453802       2.03468278      -1.14656184 </v>
   <v>       0.37639801      -1.59023308       0.77477274 </v>
   <v>       0.01808262      -1.16125135      -0.07570978 </v>
   <v>       0.01597644       0.52065714       1.23622979 </v>
   <v>      -0.07145307       0.99469201       0.78435252 </v>
   <v>      -1.18635450       0.37686580      -0.24657783 </v>
   <v>       0.48649063       1.01894247      -2.13261406 </v>
   <v>      -0.70476332      -0.16498682      -1.15813154 </v>
   <v>       0.11382882       0.14270544      -1.62353758 </v>
   <v>      -0.24858748       0.23225174      -0.79169256 </v>
   <v>       0.56936644       0.82601579      -1.01672075 </v>
   <v>       0.64796771       2.43072045       1.41061705 </v>
   <v>       0.11363163       2.66414211      -0.93392100 </v>
  </varray>
  <varray name="stress" >
   <v>      15.71485024       3.68091970      -7.43325279 </v>
   <v>       3.68091974      12.11004389      -1.80823035 </v>
   <v>      -7.43325279      -1.80823037      12.77761402 </v>
  </varray>
  <energy>
   <i name="e_fr_energy">   -478.58372983 </i>
   <i name="e_wo_entrp">   -478.59528450 </i>
   <i name="e_0_energy">   -478.58758139 </i>
  </energy>
  <time name="totalsc">  293.97  295.54</time>
  <eigenvalues>
   <array>
    <dimension dim="1">band</dimension>
    <dimension dim="2">kpoint</dimension>
    <dimension dim="3">spin</dimension>
    <field>eigene</field>
    <field>occ</field>
    <set>
     <set comment="spin 1">
      <set comment="kpoint 1">
       <r>   -7.3833    1.0000 </r>
       <r>   -5.9565    1.0000 </r>
       <r>   -5.9193    1.0000 </r>
       <r>   -5.8468    1.0000 </r>
       <r>   -5.7623    1.0000 </r>
       <r>   -5.6689    1.0000 </r>
       <r>   -5.6246    1.0000 </r>
       <r>   -4.6397    1.0000 </r>
       <r>   -4.6057    1.0000 </r>
       <r>   -4.5355    1.0000 </r>
       <r>   -4.4949    1.0000 </r>
       <r>   -4.4225    1.0000 </r>
       <r>   -4.4070    1.0000 </r>
       <r>   -4.3489    1.0000 </r>
       <r>   -4.3053    1.0000 </r>
       <r>   -4.2501    1.0000 </r>
       <r>   -4.2213    1.0000 </r>
       <r>   -4.1366    1.0000 </r>
       <r>   -4.1240    1.0000 </r>
       <r>   -3.8119    1.0000 </r>
       <r>   -3.7617    1.0000 </r>
       <r>   -3.7598    1.0000 </r>
       <r>   -3.6937    1.0000 </r>
       <r>   -2.5472    1.0000 </r>
       <r>   -2.4090    1.0000 </r>
       <r>   -2.3687    1.0000 </r>
       <r>   -2.2450    1.0000 </r>
       <r>   -2.1958    1.0000 </r>
       <r>   -2.1313    1.0000 </r>
       <r>   -2.0795    1.0000 </r>
       <r>   -1.9910    1.0000 </r>
       <r>   -1.9055    1.0000 </r>
       <r>   -0.5852    1.0000 </r>
       <r>   -0.5312    1.0000 </r>
       <r>   -0.4787    1.0000 </r>
       <r>   -0.4453    1.0000 </r>
       <r>    0.1757    1.0000 </r>
       <r>    0.2163    1.0000 </r>
       <r>    0.2438    1.0000 </r>
       <r>    0.8384    1.0000 </r>
       <r>    0.9386    1.0000 </r>
       <r>    0.9466    1.0000 </r>
       <r>    1.0005    1.0000 </r>
       <r>    1.0137    1.0000 </r>
       <r>    1.0808    1.0000 </r>
       <r>    1.8037    1.0000 </r>
       <r>    1.9113    1.0000 </r>
       <r>    1.9523    1.0000 </r>
       <r>    1.9865    1.0000 </r>
       <r>    2.0249    1.0000 </r>
       <r>    2.0458    1.0000 </r>
       <r>    2.0646    1.0000 </r>
       <r>    2.0960    1.0000 </r>
       <r>    2.1413    1.0000 </r>
       <r>    2.1814    1.0000 </r>
       <r>    2.2256    1.0000 </r>
       <r>    2.2527    1.0000 </r>
       <r>    2.8789    1.0000 </r>
       <r>    2.9446    1.0000 </r>
       <r>    3.0017    1.0000 </r>
       <r>    3.0099    1.0000 </r>
       <r>    3.0292    1.0000 </r>
       <r>    3.1505    1.0000 </r>
       <r>    3.2317    1.0000 </r>
       <r>    3.2762    1.0000 </r>
       <r>    3.3125    1.0000 </r>
       <r>    3.3699    1.0000 </r>
       <r>    3.3940    1.0000 </r>
       <r>    3.4430    1.0000 </r>
       <r>    3.5422    1.0000 </r>
       <r>    3.5963    1.0000 </r>
       <r>    3.5974    1.0000 </r>
       <r>    3.6120    1.0000 </r>
       <r>    3.6607    1.0000 </r>
       <r>    3.6792    1.0000 </r>
       <r>    3.6982    1.0000 </r>
       <r>    3.7373    1.0000 </r>
       <r>    3.7631    1.0000 </r>
       <r>    3.8064    1.0000 </r>
       <r>    3.8444    1.0000 </r>
       <r>    3.8730    1.0000 </r>
       <r>    4.5424    1.0000 </r>
       <r>    4.5847    1.0000 </r>
       <r>    4.5941    1.0000 </r>
       <r>    4.6412    1.0000 </r>
       <r>    4.6944    1.0000 </r>
       <r>    4.7253    1.0000 </r>
       <r>    4.7718    1.0000 </r>
       <r>    4.8276    1.0000 </r>
       <r>    4.8456    1.0000 </r>
       <r>    4.8785    1.0000 </r>
       <r>    4.9093    1.0000 </r>
       <r>    4.9191    1.0000 </r>
       <r>    5.8649    1.0000 </r>
       <r>    5.9150    1.0000 </r>
       <r>    5.9434    1.0000 </r>
       <r>    5.9847    1.0000 </r>
       <r>    5.9923    1.0000 </r>
       <r>    6.0475    1.0000 </r>
       <r>    6.1155    1.0000 </r>
       <r>    6.1198    1.0000 </r>
       <r>    6.1325    1.0000 </r>
       <r>    6.1639    1.0000 </r>
       <r>    6.2183    1.0000 </r>
       <r>    6.2770    1.0000 </r>
       <r>    6.5547    1.0000 </r>
       <r>    6.5971    1.0000 </r>
       <r>    6.6221    1.0000 </r>
       <r>    6.7020    1.0000 </r>
       <r>    6.7392    1.0000 </r>
       <r>    6.7663    1.0000 </r>
       <r>    6.7940    1.0000 </r>
       <r>    6.8212    1.0000 </r>
       <r>    6.8697    1.0000 </r>
       <r>    6.9044    1.0000 </r>
       <r>    6.9244    1.0000 </r>
       <r>    6.9643    1.0000 </r>
       <r>    6.9949    1.0000 </r>
       <r>    7.0178    1.0000 </r>
       <r>    7.0592    1.0000 </r>
       <r>    7.0967    1.0000 </r>
       <r>    7.1175    1.0000 </r>
       <r>    7.1653    1.0000 </r>
       <r>    7.1824    1.0000 </r>
       <r>    7.2152    1.0000 </r>
       <r>    8.0147    1.0151 </r>
       <r>    8.0499    0.9752 </r>
       <r>    8.1184    0.8132 </r>
       <r>    9.2490   -0.0000 </r>
       <r>    9.3541   -0.0000 </r>
       <r>    9.4138   -0.0000 </r>
       <r>   11.8069   -0.0000 </r>
       <r>   11.8710   -0.0000 </r>
       <r>   11.8932   -0.0000 </r>
       <r>   11.9815   -0.0000 </r>
       <r>   12.0398   -0.0000 </r>
       <r>   12.0856   -0.0000 </r>
       <r>   12.1868   -0.0000 </r>
       <r>   12.2257   -0.0000 </r>
       <r>   12.3021   -0.0000 </r>
       <r>   12.9088   -0.0000 </r>
       <r>   12.9947   -0.0000 </r>
       <r>   13.0319   -0.0000 </r>
       <r>   13.0456   -0.0000 </r>
       <r>   13.1137   -0.0000 </r>
       <r>   13.1776   -0.0000 </r>
       <r>   13.1936   -0.0000 </r>
       <r>   13.2162   -0.0000 </r>
       <r>   13.2681   -0.0000 </r>
       <r>   13.2734   -0.0000 </r>
       <r>   13.3069   -0.0000 </r>
       <r>   13.3653   -0.0000 </r>
       <r>   13.3955   -0.0000 </r>
       <r>   13.4365   -0.0000 </r>
       <r>   13.4793   -0.0000 </r>
       <r>   13.4916   -0.0000 </r>
       <r>   13.5188   -0.0000 </r>
       <r>   13.5448   -0.0000 </r>
       <r>   13.5872   -0.0000 </r>
       <r>   13.6243   -0.0000 </r>
       <r>   13.7130    0.0000 </r>
       <r>   13.7389    0.0000 </r>
       <r>   14.0373    0.0000 </r>
       <r>   14.0567    0.0000 </r>
       <r>   14.1571    0.0000 </r>
       <r>   14.1900    0.0000 </r>
       <r>   14.2728    0.0000 </r>
       <r>   14.4163    0.0000 </r>
      </set>
      <set comment="kpoint 2">
       <r>   -7.2079    1.0000 </r>
       <r>   -6.6751    1.0000 </r>
       <r>   -5.7176    1.0000 </r>
       <r>   -5.6767    1.0000 </r>
       <r>   -5.6558    1.0000 </r>
       <r>   -5.5069    1.0000 </r>
       <r>   -5.2305    1.0000 </r>
       <r>   -5.1906    1.0000 </r>
       <r>   -5.1475    1.0000 </r>
       <r>   -5.0061    1.0000 </r>
       <r>   -4.6244    1.0000 </r>
       <r>   -4.3396    1.0000 </r>
       <r>   -4.3092    1.0000 </r>
       <r>   -4.2494    1.0000 </r>
       <r>   -4.1346    1.0000 </r>
       <r>   -4.0617    1.0000 </r>
       <r>   -4.0134    1.0000 </r>
       <r>   -3.9507    1.0000 </r>
       <r>   -3.8795    1.0000 </r>
       <r>   -3.5194    1.0000 </r>
       <r>   -3.4008    1.0000 </r>
       <r>   -3.3870    1.0000 </r>
       <r>   -3.2457    1.0000 </r>
       <r>   -3.2269    1.0000 </r>
       <r>   -2.6684    1.0000 </r>
       <r>   -2.5645    1.0000 </r>
       <r>   -2.5350    1.0000 </r>
       <r>   -2.4322    1.0000 </r>
       <r>   -2.3186    1.0000 </r>
       <r>   -2.2016    1.0000 </r>
       <r>   -2.1443    1.0000 </r>
       <r>   -2.0866    1.0000 </r>
       <r>   -0.1380    1.0000 </r>
       <r>   -0.0839    1.0000 </r>
       <r>   -0.0502    1.0000 </r>
       <r>    0.0445    1.0000 </r>
       <r>    0.3173    1.0000 </r>
       <r>    0.3812    1.0000 </r>
       <r>    0.6629    1.0000 </r>
       <r>    0.7056    1.0000 </r>
       <r>    0.9026    1.0000 </r>
       <r>    0.9149    1.0000 </r>
       <r>    0.9613    1.0000 </r>
       <r>    1.0099    1.0000 </r>
       <r>    1.0738    1.0000 </r>
       <r>    1.1303    1.0000 </r>
       <r>    1.1615    1.0000 </r>
       <r>    1.2332    1.0000 </r>
       <r>    1.2753    1.0000 </r>
       <r>    1.3759    1.0000 </r>
       <r>    1.3926    1.0000 </r>
       <r>    1.4443    1.0000 </r>
       <r>    1.5187    1.0000 </r>
       <r>    2.6166    1.0000 </r>
       <r>    2.6806    1.0000 </r>
       <r>    2.6961    1.0000 </r>
       <r>    2.7328    1.0000 </r>
       <r>    2.8063    1.0000 </r>
       <r>    2.8983    1.0000 </r>
       <r>    2.9197    1.0000 </r>
       <r>    2.9494    1.0000 </r>
       <r>    2.9794    1.0000 </r>
       <r>    3.0069    1.0000 </r>
       <r>    3.0482    1.0000 </r>
       <r>    3.0836    1.0000 </r>
       <r>    3.1199    1.0000 </r>
       <r>    3.4784    1.0000 </r>
       <r>    3.5164    1.0000 </r>
       <r>    3.6344    1.0000 </r>
       <r>    3.6634    1.0000 </r>
       <r>    3.9543    1.0000 </r>
       <r>    3.9923    1.0000 </r>
       <r>    4.0196    1.0000 </r>
       <r>    4.0708    1.0000 </r>
       <r>    4.2639    1.0000 </r>
       <r>    4.3013    1.0000 </r>
       <r>    4.3229    1.0000 </r>
       <r>    4.3468    1.0000 </r>
       <r>    4.3773    1.0000 </r>
       <r>    4.4273    1.0000 </r>
       <r>    4.4533    1.0000 </r>
       <r>    4.5242    1.0000 </r>
       <r>    4.5820    1.0000 </r>
       <r>    4.6166    1.0000 </r>
       <r>    4.6307    1.0000 </r>
       <r>    4.6980    1.0000 </r>
       <r>    4.7851    1.0000 </r>
       <r>    4.8334    1.0000 </r>
       <r>    4.8899    1.0000 </r>
       <r>    4.9470    1.0000 </r>
       <r>    5.0095    1.0000 </r>
       <r>    5.0445    1.0000 </r>
       <r>    5.3632    1.0000 </r>
       <r>    5.3988    1.0000 </r>
       <r>    5.5450    1.0000 </r>
       <r>    5.5892    1.0000 </r>
       <r>    5.6071    1.0000 </r>
       <r>    5.6965    1.0000 </r>
       <r>    5.7833    1.0000 </r>
       <r>    5.8211    1.0000 </r>
       <r>    5.8966    1.0000 </r>
       <r>    5.9629    1.0000 </r>
       <r>    6.1357    1.0000 </r>
       <r>    6.1834    1.0000 </r>
       <r>    6.2536    1.0000 </r>
       <r>    6.3095    1.0000 </r>
       <r>    6.3810    1.0000 </r>
       <r>    6.4010    1.0000 </r>
       <r>    6.4743    1.0000 </r>
       <r>    6.5202    1.0000 </r>
       <r>    6.6102    1.0000 </r>
       <r>    6.7210    1.0000 </r>
       <r>    6.7667    1.0000 </r>
       <r>    6.7842    1.0000 </r>
       <r>    6.8270    1.0000 </r>
       <r>    6.8414    1.0000 </r>
       <r>    6.8960    1.0000 </r>
       <r>    6.9467    1.0000 </r>
       <r>    6.9659    1.0000 </r>
       <r>    6.9896    1.0000 </r>
       <r>    7.0185    1.0000 </r>
       <r>    7.0443    1.0000 </r>
       <r>    7.0986    1.0000 </r>
       <r>    7.1091    1.0000 </r>
       <r>    7.1874    1.0000 </r>
       <r>    7.5473    1.0000 </r>
       <r>    7.7168    1.0017 </r>
       <r>    7.7541    1.0036 </r>
       <r>    9.6389   -0.0000 </r>
       <r>   10.1505   -0.0000 </r>
       <r>   10.1819   -0.0000 </r>
       <r>   10.6007   -0.0000 </r>
       <r>   11.8892   -0.0000 </r>
       <r>   11.9040   -0.0000 </r>
       <r>   12.3778   -0.0000 </r>
       <r>   12.4854   -0.0000 </r>
       <r>   12.4993   -0.0000 </r>
       <r>   12.6018   -0.0000 </r>
       <r>   12.6410   -0.0000 </r>
       <r>   12.7847   -0.0000 </r>
       <r>   12.8430   -0.0000 </r>
       <r>   12.8974   -0.0000 </r>
       <r>   12.9259   -0.0000 </r>
       <r>   12.9894   -0.0000 </r>
       <r>   13.0191   -0.0000 </r>
       <r>   13.0489   -0.0000 </r>
       <r>   13.0900   -0.0000 </r>
       <r>   13.1005   -0.0000 </r>
       <r>   13.1518   -0.0000 </r>
       <r>   13.2330   -0.0000 </r>
       <r>   13.4630   -0.0000 </r>
       <r>   13.4732   -0.0000 </r>
       <r>   13.5636   -0.0000 </r>
       <r>   13.5861   -0.0000 </r>
       <r>   13.6338   -0.0000 </r>
       <r>   13.6613    0.0000 </r>
       <r>   13.6784    0.0000 </r>
       <r>   13.7163    0.0000 </r>
       <r>   13.7500    0.0000 </r>
       <r>   13.9059    0.0000 </r>
       <r>   13.9335    0.0000 </r>
       <r>   14.0070    0.0000 </r>
       <r>   14.0504    0.0000 </r>
       <r>   14.4442    0.0000 </r>
       <r>   14.5867    0.0000 </r>
       <r>   14.6523    0.0000 </r>
       <r>   14.7505    0.0000 </r>
       <r>   14.8415    0.0000 </r>
      </set>
      <set comment="kpoint 3">
       <r>   -7.2172    1.0000 </r>
       <r>   -6.6487    1.0000 </r>
       <r>   -5.7535    1.0000 </r>
       <r>   -5.6725    1.0000 </r>
       <r>   -5.6322    1.0000 </r>
       <r>   -5.5675    1.0000 </r>
       <r>   -5.2375    1.0000 </r>
       <r>   -5.1168    1.0000 </r>
       <r>   -5.0847    1.0000 </r>
       <r>   -5.0612    1.0000 </r>
       <r>   -4.6047    1.0000 </r>
       <r>   -4.3982    1.0000 </r>
       <r>   -4.3600    1.0000 </r>
       <r>   -4.2808    1.0000 </r>
       <r>   -4.1998    1.0000 </r>
       <r>   -3.9804    1.0000 </r>
       <r>   -3.9532    1.0000 </r>
       <r>   -3.8958    1.0000 </r>
       <r>   -3.8657    1.0000 </r>
       <r>   -3.5118    1.0000 </r>
       <r>   -3.4156    1.0000 </r>
       <r>   -3.3774    1.0000 </r>
       <r>   -3.3601    1.0000 </r>
       <r>   -3.1506    1.0000 </r>
       <r>   -2.6294    1.0000 </r>
       <r>   -2.5461    1.0000 </r>
       <r>   -2.5223    1.0000 </r>
       <r>   -2.4414    1.0000 </r>
       <r>   -2.4115    1.0000 </r>
       <r>   -2.3085    1.0000 </r>
       <r>   -2.0746    1.0000 </r>
       <r>   -2.0229    1.0000 </r>
       <r>   -0.1464    1.0000 </r>
       <r>   -0.0858    1.0000 </r>
       <r>   -0.0202    1.0000 </r>
       <r>    0.0005    1.0000 </r>
       <r>    0.3138    1.0000 </r>
       <r>    0.3485    1.0000 </r>
       <r>    0.6810    1.0000 </r>
       <r>    0.7425    1.0000 </r>
       <r>    0.9256    1.0000 </r>
       <r>    0.9416    1.0000 </r>
       <r>    0.9915    1.0000 </r>
       <r>    1.0433    1.0000 </r>
       <r>    1.0652    1.0000 </r>
       <r>    1.1000    1.0000 </r>
       <r>    1.1662    1.0000 </r>
       <r>    1.2073    1.0000 </r>
       <r>    1.2364    1.0000 </r>
       <r>    1.3383    1.0000 </r>
       <r>    1.4185    1.0000 </r>
       <r>    1.4500    1.0000 </r>
       <r>    1.5416    1.0000 </r>
       <r>    2.5828    1.0000 </r>
       <r>    2.6067    1.0000 </r>
       <r>    2.6766    1.0000 </r>
       <r>    2.7053    1.0000 </r>
       <r>    2.8553    1.0000 </r>
       <r>    2.9036    1.0000 </r>
       <r>    2.9284    1.0000 </r>
       <r>    2.9624    1.0000 </r>
       <r>    2.9806    1.0000 </r>
       <r>    3.0097    1.0000 </r>
       <r>    3.0517    1.0000 </r>
       <r>    3.0740    1.0000 </r>
       <r>    3.1311    1.0000 </r>
       <r>    3.4885    1.0000 </r>
       <r>    3.5257    1.0000 </r>
       <r>    3.6205    1.0000 </r>
       <r>    3.6383    1.0000 </r>
       <r>    3.9249    1.0000 </r>
       <r>    3.9862    1.0000 </r>
       <r>    4.0462    1.0000 </r>
       <r>    4.0778    1.0000 </r>
       <r>    4.2805    1.0000 </r>
       <r>    4.3437    1.0000 </r>
       <r>    4.3574    1.0000 </r>
       <r>    4.3972    1.0000 </r>
       <r>    4.4074    1.0000 </r>
       <r>    4.4277    1.0000 </r>
       <r>    4.4543    1.0000 </r>
       <r>    4.4816    1.0000 </r>
       <r>    4.5696    1.0000 </r>
       <r>    4.5967    1.0000 </r>
       <r>    4.6752    1.0000 </r>
       <r>    4.7200    1.0000 </r>
       <r>    4.7824    1.0000 </r>
       <r>    4.8423    1.0000 </r>
       <r>    4.8539    1.0000 </r>
       <r>    4.8924    1.0000 </r>
       <r>    4.9734    1.0000 </r>
       <r>    4.9909    1.0000 </r>
       <r>    5.3578    1.0000 </r>
       <r>    5.4252    1.0000 </r>
       <r>    5.5357    1.0000 </r>
       <r>    5.6063    1.0000 </r>
       <r>    5.6403    1.0000 </r>
       <r>    5.7221    1.0000 </r>
       <r>    5.8053    1.0000 </r>
       <r>    5.8708    1.0000 </r>
       <r>    5.9234    1.0000 </r>
       <r>    5.9929    1.0000 </r>
       <r>    6.1419    1.0000 </r>
       <r>    6.2187    1.0000 </r>
       <r>    6.2559    1.0000 </r>
       <r>    6.3006    1.0000 </r>
       <r>    6.3447    1.0000 </r>
       <r>    6.3966    1.0000 </r>
       <r>    6.4842    1.0000 </r>
       <r>    6.5109    1.0000 </r>
       <r>    6.5734    1.0000 </r>
       <r>    6.6443    1.0000 </r>
       <r>    6.6649    1.0000 </r>
       <r>    6.7207    1.0000 </r>
       <r>    6.7957    1.0000 </r>
       <r>    6.8421    1.0000 </r>
       <r>    6.8818    1.0000 </r>
       <r>    6.9171    1.0000 </r>
       <r>    6.9609    1.0000 </r>
       <r>    6.9951    1.0000 </r>
       <r>    7.0481    1.0000 </r>
       <r>    7.0781    1.0000 </r>
       <r>    7.1373    1.0000 </r>
       <r>    7.1845    1.0000 </r>
       <r>    7.2094    1.0000 </r>
       <r>    7.5247    1.0000 </r>
       <r>    7.7044    1.0013 </r>
       <r>    7.7955    1.0075 </r>
       <r>    9.6446   -0.0000 </r>
       <r>   10.1003   -0.0000 </r>
       <r>   10.2268   -0.0000 </r>
       <r>   10.6013   -0.0000 </r>
       <r>   11.8579   -0.0000 </r>
       <r>   11.9709   -0.0000 </r>
       <r>   12.3612   -0.0000 </r>
       <r>   12.4472   -0.0000 </r>
       <r>   12.5577   -0.0000 </r>
       <r>   12.6031   -0.0000 </r>
       <r>   12.6772   -0.0000 </r>
       <r>   12.7560   -0.0000 </r>
       <r>   12.8103   -0.0000 </r>
       <r>   12.8715   -0.0000 </r>
       <r>   12.9171   -0.0000 </r>
       <r>   12.9657   -0.0000 </r>
       <r>   13.0082   -0.0000 </r>
       <r>   13.0639   -0.0000 </r>
       <r>   13.0874   -0.0000 </r>
       <r>   13.1420   -0.0000 </r>
       <r>   13.1893   -0.0000 </r>
       <r>   13.2669   -0.0000 </r>
       <r>   13.4171   -0.0000 </r>
       <r>   13.4554   -0.0000 </r>
       <r>   13.4959   -0.0000 </r>
       <r>   13.5544   -0.0000 </r>
       <r>   13.6241   -0.0000 </r>
       <r>   13.6573   -0.0000 </r>
       <r>   13.6951    0.0000 </r>
       <r>   13.7396    0.0000 </r>
       <r>   13.7795    0.0000 </r>
       <r>   13.9302    0.0000 </r>
       <r>   13.9456    0.0000 </r>
       <r>   14.0021    0.0000 </r>
       <r>   14.0732    0.0000 </r>
       <r>   14.4232    0.0000 </r>
       <r>   14.6268    0.0000 </r>
       <r>   14.6780    0.0000 </r>
       <r>   14.7566    0.0000 </r>
       <r>   14.8356    0.0000 </r>
      </set>
      <set comment="kpoint 4">
       <r>   -7.2070    1.0000 </r>
       <r>   -6.6731    1.0000 </r>
       <r>   -5.8007    1.0000 </r>
       <r>   -5.6947    1.0000 </r>
       <r>   -5.5632    1.0000 </r>
       <r>   -5.4945    1.0000 </r>
       <r>   -5.2792    1.0000 </r>
       <r>   -5.1781    1.0000 </r>
       <r>   -5.0619    1.0000 </r>
       <r>   -5.0053    1.0000 </r>
       <r>   -4.6714    1.0000 </r>
       <r>   -4.3773    1.0000 </r>
       <r>   -4.2834    1.0000 </r>
       <r>   -4.2624    1.0000 </r>
       <r>   -4.1663    1.0000 </r>
       <r>   -4.0393    1.0000 </r>
       <r>   -4.0049    1.0000 </r>
       <r>   -3.9267    1.0000 </r>
       <r>   -3.8817    1.0000 </r>
       <r>   -3.5523    1.0000 </r>
       <r>   -3.4098    1.0000 </r>
       <r>   -3.3472    1.0000 </r>
       <r>   -3.2780    1.0000 </r>
       <r>   -3.2133    1.0000 </r>
       <r>   -2.7013    1.0000 </r>
       <r>   -2.5346    1.0000 </r>
       <r>   -2.4870    1.0000 </r>
       <r>   -2.4385    1.0000 </r>
       <r>   -2.2909    1.0000 </r>
       <r>   -2.2219    1.0000 </r>
       <r>   -2.1709    1.0000 </r>
       <r>   -2.0902    1.0000 </r>
       <r>   -0.1371    1.0000 </r>
       <r>   -0.0891    1.0000 </r>
       <r>   -0.0348    1.0000 </r>
       <r>    0.0124    1.0000 </r>
       <r>    0.3426    1.0000 </r>
       <r>    0.3685    1.0000 </r>
       <r>    0.6477    1.0000 </r>
       <r>    0.7293    1.0000 </r>
       <r>    0.8603    1.0000 </r>
       <r>    0.9309    1.0000 </r>
       <r>    1.0164    1.0000 </r>
       <r>    1.0580    1.0000 </r>
       <r>    1.0752    1.0000 </r>
       <r>    1.1137    1.0000 </r>
       <r>    1.1519    1.0000 </r>
       <r>    1.1911    1.0000 </r>
       <r>    1.2998    1.0000 </r>
       <r>    1.3449    1.0000 </r>
       <r>    1.3970    1.0000 </r>
       <r>    1.4499    1.0000 </r>
       <r>    1.5149    1.0000 </r>
       <r>    2.6058    1.0000 </r>
       <r>    2.6390    1.0000 </r>
       <r>    2.6894    1.0000 </r>
       <r>    2.7421    1.0000 </r>
       <r>    2.8408    1.0000 </r>
       <r>    2.8597    1.0000 </r>
       <r>    2.9258    1.0000 </r>
       <r>    2.9565    1.0000 </r>
       <r>    2.9710    1.0000 </r>
       <r>    2.9998    1.0000 </r>
       <r>    3.0272    1.0000 </r>
       <r>    3.1077    1.0000 </r>
       <r>    3.1449    1.0000 </r>
       <r>    3.4892    1.0000 </r>
       <r>    3.5280    1.0000 </r>
       <r>    3.6390    1.0000 </r>
       <r>    3.6552    1.0000 </r>
       <r>    3.9183    1.0000 </r>
       <r>    4.0002    1.0000 </r>
       <r>    4.0167    1.0000 </r>
       <r>    4.0967    1.0000 </r>
       <r>    4.2377    1.0000 </r>
       <r>    4.2976    1.0000 </r>
       <r>    4.3379    1.0000 </r>
       <r>    4.3626    1.0000 </r>
       <r>    4.3763    1.0000 </r>
       <r>    4.4082    1.0000 </r>
       <r>    4.4577    1.0000 </r>
       <r>    4.5034    1.0000 </r>
       <r>    4.5870    1.0000 </r>
       <r>    4.6364    1.0000 </r>
       <r>    4.6871    1.0000 </r>
       <r>    4.7009    1.0000 </r>
       <r>    4.7864    1.0000 </r>
       <r>    4.8355    1.0000 </r>
       <r>    4.8701    1.0000 </r>
       <r>    4.9321    1.0000 </r>
       <r>    5.0024    1.0000 </r>
       <r>    5.0401    1.0000 </r>
       <r>    5.3495    1.0000 </r>
       <r>    5.4138    1.0000 </r>
       <r>    5.5444    1.0000 </r>
       <r>    5.5923    1.0000 </r>
       <r>    5.6145    1.0000 </r>
       <r>    5.6686    1.0000 </r>
       <r>    5.7868    1.0000 </r>
       <r>    5.8261    1.0000 </r>
       <r>    5.9192    1.0000 </r>
       <r>    5.9777    1.0000 </r>
       <r>    6.1255    1.0000 </r>
       <r>    6.2295    1.0000 </r>
       <r>    6.2565    1.0000 </r>
       <r>    6.3083    1.0000 </r>
       <r>    6.3274    1.0000 </r>
       <r>    6.4035    1.0000 </r>
       <r>    6.4720    1.0000 </r>
       <r>    6.5093    1.0000 </r>
       <r>    6.6117    1.0000 </r>
       <r>    6.7004    1.0000 </r>
       <r>    6.7315    1.0000 </r>
       <r>    6.7823    1.0000 </r>
       <r>    6.8164    1.0000 </r>
       <r>    6.8927    1.0000 </r>
       <r>    6.8987    1.0000 </r>
       <r>    6.9462    1.0000 </r>
       <r>    6.9593    1.0000 </r>
       <r>    6.9725    1.0000 </r>
       <r>    7.0210    1.0000 </r>
       <r>    7.0782    1.0000 </r>
       <r>    7.0952    1.0000 </r>
       <r>    7.1317    1.0000 </r>
       <r>    7.1624    1.0000 </r>
       <r>    7.5380    1.0000 </r>
       <r>    7.7218    1.0019 </r>
       <r>    7.7562    1.0038 </r>
       <r>    9.6357   -0.0000 </r>
       <r>   10.1468   -0.0000 </r>
       <r>   10.1953   -0.0000 </r>
       <r>   10.5996   -0.0000 </r>
       <r>   11.8583   -0.0000 </r>
       <r>   11.9388   -0.0000 </r>
       <r>   12.4144   -0.0000 </r>
       <r>   12.4785   -0.0000 </r>
       <r>   12.5112   -0.0000 </r>
       <r>   12.6065   -0.0000 </r>
       <r>   12.6612   -0.0000 </r>
       <r>   12.7924   -0.0000 </r>
       <r>   12.8531   -0.0000 </r>
       <r>   12.8826   -0.0000 </r>
       <r>   12.9108   -0.0000 </r>
       <r>   12.9660   -0.0000 </r>
       <r>   13.0265   -0.0000 </r>
       <r>   13.0475   -0.0000 </r>
       <r>   13.0687   -0.0000 </r>
       <r>   13.0898   -0.0000 </r>
       <r>   13.1522   -0.0000 </r>
       <r>   13.1971   -0.0000 </r>
       <r>   13.4492   -0.0000 </r>
       <r>   13.4865   -0.0000 </r>
       <r>   13.5452   -0.0000 </r>
       <r>   13.5757   -0.0000 </r>
       <r>   13.5941   -0.0000 </r>
       <r>   13.6492   -0.0000 </r>
       <r>   13.6992    0.0000 </r>
       <r>   13.7155    0.0000 </r>
       <r>   13.7791    0.0000 </r>
       <r>   13.8885    0.0000 </r>
       <r>   13.9683    0.0000 </r>
       <r>   13.9982    0.0000 </r>
       <r>   14.1066    0.0000 </r>
       <r>   14.4171    0.0000 </r>
       <r>   14.6356    0.0000 </r>
       <r>   14.6734    0.0000 </r>
       <r>   14.7313    0.0000 </r>
       <r>   14.7487    0.0000 </r>
      </set>
      <set comment="kpoint 5">
       <r>   -7.0455    1.0000 </r>
       <r>   -6.5432    1.0000 </r>
       <r>   -6.4382    1.0000 </r>
       <r>   -5.9419    1.0000 </r>
       <r>   -5.5190    1.0000 </r>
       <r>   -5.4897    1.0000 </r>
       <r>   -5.1243    1.0000 </r>
       <r>   -5.0649    1.0000 </r>
       <r>   -4.9356    1.0000 </r>
       <r>   -4.8863    1.0000 </r>
       <r>   -4.6054    1.0000 </r>
       <r>   -4.5660    1.0000 </r>
       <r>   -4.4538    1.0000 </r>
       <r>   -4.3869    1.0000 </r>
       <r>   -4.0571    1.0000 </r>
       <r>   -4.0067    1.0000 </r>
       <r>   -3.6322    1.0000 </r>
       <r>   -3.5785    1.0000 </r>
       <r>   -3.5150    1.0000 </r>
       <r>   -3.4307    1.0000 </r>
       <r>   -3.2935    1.0000 </r>
       <r>   -3.2770    1.0000 </r>
       <r>   -3.1729    1.0000 </r>
       <r>   -3.0904    1.0000 </r>
       <r>   -2.8789    1.0000 </r>
       <r>   -2.8171    1.0000 </r>
       <r>   -2.7727    1.0000 </r>
       <r>   -2.6948    1.0000 </r>
       <r>   -2.6436    1.0000 </r>
       <r>   -2.3864    1.0000 </r>
       <r>   -2.2737    1.0000 </r>
       <r>   -2.1105    1.0000 </r>
       <r>   -0.2183    1.0000 </r>
       <r>   -0.1665    1.0000 </r>
       <r>    0.3636    1.0000 </r>
       <r>    0.4028    1.0000 </r>
       <r>    0.4372    1.0000 </r>
       <r>    0.5314    1.0000 </r>
       <r>    0.5841    1.0000 </r>
       <r>    0.6316    1.0000 </r>
       <r>    0.6932    1.0000 </r>
       <r>    0.7490    1.0000 </r>
       <r>    0.8089    1.0000 </r>
       <r>    0.8297    1.0000 </r>
       <r>    0.8686    1.0000 </r>
       <r>    1.0146    1.0000 </r>
       <r>    1.1397    1.0000 </r>
       <r>    1.2297    1.0000 </r>
       <r>    1.2828    1.0000 </r>
       <r>    1.3384    1.0000 </r>
       <r>    1.9479    1.0000 </r>
       <r>    1.9841    1.0000 </r>
       <r>    2.0068    1.0000 </r>
       <r>    2.0747    1.0000 </r>
       <r>    2.1059    1.0000 </r>
       <r>    2.1887    1.0000 </r>
       <r>    2.3939    1.0000 </r>
       <r>    2.5526    1.0000 </r>
       <r>    2.6188    1.0000 </r>
       <r>    2.6575    1.0000 </r>
       <r>    2.7445    1.0000 </r>
       <r>    3.1683    1.0000 </r>
       <r>    3.1843    1.0000 </r>
       <r>    3.2788    1.0000 </r>
       <r>    3.2979    1.0000 </r>
       <r>    3.3113    1.0000 </r>
       <r>    3.4358    1.0000 </r>
       <r>    3.5578    1.0000 </r>
       <r>    3.8462    1.0000 </r>
       <r>    3.8743    1.0000 </r>
       <r>    3.9585    1.0000 </r>
       <r>    4.0028    1.0000 </r>
       <r>    4.0553    1.0000 </r>
       <r>    4.1097    1.0000 </r>
       <r>    4.1831    1.0000 </r>
       <r>    4.2808    1.0000 </r>
       <r>    4.3695    1.0000 </r>
       <r>    4.4501    1.0000 </r>
       <r>    4.5033    1.0000 </r>
       <r>    4.6091    1.0000 </r>
       <r>    4.6491    1.0000 </r>
       <r>    4.7852    1.0000 </r>
       <r>    4.8339    1.0000 </r>
       <r>    4.8869    1.0000 </r>
       <r>    4.9277    1.0000 </r>
       <r>    4.9522    1.0000 </r>
       <r>    5.0046    1.0000 </r>
       <r>    5.1252    1.0000 </r>
       <r>    5.2231    1.0000 </r>
       <r>    5.2945    1.0000 </r>
       <r>    5.3676    1.0000 </r>
       <r>    5.3865    1.0000 </r>
       <r>    5.4220    1.0000 </r>
       <r>    5.4717    1.0000 </r>
       <r>    5.4925    1.0000 </r>
       <r>    5.5409    1.0000 </r>
       <r>    5.5720    1.0000 </r>
       <r>    5.5842    1.0000 </r>
       <r>    5.6139    1.0000 </r>
       <r>    5.6565    1.0000 </r>
       <r>    5.7485    1.0000 </r>
       <r>    5.8703    1.0000 </r>
       <r>    5.9348    1.0000 </r>
       <r>    5.9917    1.0000 </r>
       <r>    6.0212    1.0000 </r>
       <r>    6.0427    1.0000 </r>
       <r>    6.1944    1.0000 </r>
       <r>    6.2339    1.0000 </r>
       <r>    6.2606    1.0000 </r>
       <r>    6.3184    1.0000 </r>
       <r>    6.4124    1.0000 </r>
       <r>    6.4631    1.0000 </r>
       <r>    6.4974    1.0000 </r>
       <r>    6.5395    1.0000 </r>
       <r>    6.5795    1.0000 </r>
       <r>    6.6580    1.0000 </r>
       <r>    6.7328    1.0000 </r>
       <r>    6.7441    1.0000 </r>
       <r>    6.8394    1.0000 </r>
       <r>    6.8810    1.0000 </r>
       <r>    6.9153    1.0000 </r>
       <r>    6.9571    1.0000 </r>
       <r>    7.0572    1.0000 </r>
       <r>    7.3644    1.0000 </r>
       <r>    7.4604    1.0000 </r>
       <r>    7.5980    1.0001 </r>
       <r>    7.6801    1.0007 </r>
       <r>    8.0344    0.9960 </r>
       <r>   10.3204   -0.0000 </r>
       <r>   10.4391   -0.0000 </r>
       <r>   10.5017   -0.0000 </r>
       <r>   11.2288   -0.0000 </r>
       <r>   11.3240   -0.0000 </r>
       <r>   11.5682   -0.0000 </r>
       <r>   11.6273   -0.0000 </r>
       <r>   11.8301   -0.0000 </r>
       <r>   12.1061   -0.0000 </r>
       <r>   12.1777   -0.0000 </r>
       <r>   12.6900   -0.0000 </r>
       <r>   12.7524   -0.0000 </r>
       <r>   12.7895   -0.0000 </r>
       <r>   12.8505   -0.0000 </r>
       <r>   12.9071   -0.0000 </r>
       <r>   13.0021   -0.0000 </r>
       <r>   13.0587   -0.0000 </r>
       <r>   13.0797   -0.0000 </r>
       <r>   13.1539   -0.0000 </r>
       <r>   13.1946   -0.0000 </r>
       <r>   13.2705   -0.0000 </r>
       <r>   13.3026   -0.0000 </r>
       <r>   13.4810   -0.0000 </r>
       <r>   13.5119   -0.0000 </r>
       <r>   13.5463   -0.0000 </r>
       <r>   13.5931   -0.0000 </r>
       <r>   13.6512   -0.0000 </r>
       <r>   13.7086    0.0000 </r>
       <r>   13.7353    0.0000 </r>
       <r>   13.7879    0.0000 </r>
       <r>   13.8604    0.0000 </r>
       <r>   13.9308    0.0000 </r>
       <r>   13.9674    0.0000 </r>
       <r>   14.0358    0.0000 </r>
       <r>   14.1743    0.0000 </r>
       <r>   14.5265    0.0000 </r>
       <r>   14.6150    0.0000 </r>
       <r>   14.6708    0.0000 </r>
       <r>   14.7994    0.0000 </r>
       <r>   14.8955    0.0000 </r>
      </set>
      <set comment="kpoint 6">
       <r>   -7.0433    1.0000 </r>
       <r>   -6.5377    1.0000 </r>
       <r>   -6.4468    1.0000 </r>
       <r>   -5.9625    1.0000 </r>
       <r>   -5.5340    1.0000 </r>
       <r>   -5.4503    1.0000 </r>
       <r>   -5.1054    1.0000 </r>
       <r>   -5.0307    1.0000 </r>
       <r>   -4.9644    1.0000 </r>
       <r>   -4.8957    1.0000 </r>
       <r>   -4.6293    1.0000 </r>
       <r>   -4.5152    1.0000 </r>
       <r>   -4.4720    1.0000 </r>
       <r>   -4.3990    1.0000 </r>
       <r>   -4.0975    1.0000 </r>
       <r>   -3.9936    1.0000 </r>
       <r>   -3.6345    1.0000 </r>
       <r>   -3.5841    1.0000 </r>
       <r>   -3.4966    1.0000 </r>
       <r>   -3.4358    1.0000 </r>
       <r>   -3.3455    1.0000 </r>
       <r>   -3.2394    1.0000 </r>
       <r>   -3.1862    1.0000 </r>
       <r>   -3.0656    1.0000 </r>
       <r>   -2.9063    1.0000 </r>
       <r>   -2.8337    1.0000 </r>
       <r>   -2.7564    1.0000 </r>
       <r>   -2.6507    1.0000 </r>
       <r>   -2.6247    1.0000 </r>
       <r>   -2.3839    1.0000 </r>
       <r>   -2.2608    1.0000 </r>
       <r>   -2.1482    1.0000 </r>
       <r>   -0.2359    1.0000 </r>
       <r>   -0.1724    1.0000 </r>
       <r>    0.3489    1.0000 </r>
       <r>    0.4329    1.0000 </r>
       <r>    0.4797    1.0000 </r>
       <r>    0.5258    1.0000 </r>
       <r>    0.5772    1.0000 </r>
       <r>    0.6123    1.0000 </r>
       <r>    0.7037    1.0000 </r>
       <r>    0.7772    1.0000 </r>
       <r>    0.7880    1.0000 </r>
       <r>    0.8466    1.0000 </r>
       <r>    0.8753    1.0000 </r>
       <r>    0.9875    1.0000 </r>
       <r>    1.1439    1.0000 </r>
       <r>    1.1950    1.0000 </r>
       <r>    1.2679    1.0000 </r>
       <r>    1.3758    1.0000 </r>
       <r>    1.8797    1.0000 </r>
       <r>    2.0082    1.0000 </r>
       <r>    2.0218    1.0000 </r>
       <r>    2.0650    1.0000 </r>
       <r>    2.1315    1.0000 </r>
       <r>    2.1810    1.0000 </r>
       <r>    2.3949    1.0000 </r>
       <r>    2.5649    1.0000 </r>
       <r>    2.6034    1.0000 </r>
       <r>    2.6775    1.0000 </r>
       <r>    2.7076    1.0000 </r>
       <r>    3.1746    1.0000 </r>
       <r>    3.2307    1.0000 </r>
       <r>    3.2621    1.0000 </r>
       <r>    3.3012    1.0000 </r>
       <r>    3.3261    1.0000 </r>
       <r>    3.4564    1.0000 </r>
       <r>    3.5255    1.0000 </r>
       <r>    3.8701    1.0000 </r>
       <r>    3.8933    1.0000 </r>
       <r>    3.9845    1.0000 </r>
       <r>    4.0070    1.0000 </r>
       <r>    4.0278    1.0000 </r>
       <r>    4.1130    1.0000 </r>
       <r>    4.1579    1.0000 </r>
       <r>    4.2845    1.0000 </r>
       <r>    4.3128    1.0000 </r>
[...]
      </set>
     </set>
    </set>
   </array>
  </eigenvalues>
  <separator name="orbital magnetization" >
   <v name="MAGDIPOLOUT">      0.00000000      0.00000000      0.00000000</v>
  </separator>
  <dos>
   <i name="efermi">      8.19928701 </i>
   <total>
    <array>
     <dimension dim="1">gridpoints</dimension>
     <dimension dim="2">spin</dimension>
     <field>energy</field>
     <field>total</field>
     <field>integrated</field>
     <set>
      <set comment="spin 1">
       <r>    -9.3833     0.0000     0.0000 </r>
       <r>    -9.2942     0.0000     0.0000 </r>
       <r>    -9.2052     0.0000     0.0000 </r>
       <r>    -9.1161     0.0000     0.0000 </r>
       <r>    -9.0271    -0.0000    -0.0000 </r>
       <r>    -8.9381    -0.0000    -0.0000 </r>
       <r>    -8.8490    -0.0000    -0.0000 </r>
       <r>    -8.7600    -0.0000    -0.0000 </r>
       <r>    -8.6709    -0.0000    -0.0000 </r>
       <r>    -8.5819    -0.0000    -0.0000 </r>
       <r>    -8.4928    -0.0000    -0.0000 </r>
       <r>    -8.4038    -0.0000    -0.0000 </r>
       <r>    -8.3148    -0.0000    -0.0000 </r>
       <r>    -8.2257    -0.0000    -0.0000 </r>
       <r>    -8.1367    -0.0000    -0.0000 </r>
       <r>    -8.0476    -0.0000    -0.0000 </r>
       <r>    -7.9586    -0.0001    -0.0000 </r>
       <r>    -7.8696    -0.0012    -0.0001 </r>
       <r>    -7.7805    -0.0066    -0.0007 </r>
       <r>    -7.6915    -0.0225    -0.0027 </r>
       <r>    -7.6024    -0.0447    -0.0067 </r>
       <r>    -7.5134    -0.0320    -0.0095 </r>
       <r>    -7.4243     0.1237     0.0015 </r>
       <r>    -7.3353     0.6092     0.0557 </r>
       <r>    -7.2463     1.5687     0.1954 </r>
       <r>    -7.1572     2.9046     0.4540 </r>
       <r>    -7.0682     4.1937     0.8274 </r>
       <r>    -6.9791     4.7219     1.2479 </r>
       <r>    -6.8901     4.1050     1.6134 </r>
       <r>    -6.8011     2.9472     1.8758 </r>
       <r>    -6.7120     2.5667     2.1044 </r>
       <r>    -6.6230     4.0409     2.4642 </r>
       <r>    -6.5339     7.0299     3.0901 </r>
       <r>    -6.4449     9.6069     3.9455 </r>
       <r>    -6.3558     9.7133     4.8104 </r>
       <r>    -6.2668     7.1924     5.4508 </r>
       <r>    -6.1778     4.0132     5.8082 </r>
       <r>    -6.0887     2.5830     6.0382 </r>
       <r>    -5.9997     3.9960     6.3940 </r>
       <r>    -5.9106     6.9374     7.0117 </r>
       <r>    -5.8216     9.3763     7.8466 </r>
       <r>    -5.7326    10.8770     8.8151 </r>
       <r>    -5.6435    11.6777     9.8549 </r>
       <r>    -5.5545    11.6463    10.8919 </r>
       <r>    -5.4654    10.3653    11.8148 </r>
       <r>    -5.3764     8.0506    12.5317 </r>
       <r>    -5.2873     6.6962    13.1279 </r>
       <r>    -5.1983     8.1985    13.8579 </r>
       <r>    -5.1093    11.9023    14.9177 </r>
       <r>    -5.0202    14.6946    16.2261 </r>
       <r>    -4.9312    13.4978    17.4280 </r>
       <r>    -4.8421     8.7638    18.2084 </r>
       <r>    -4.7531     4.9416    18.6484 </r>
       <r>    -4.6641     6.0553    19.1875 </r>
       <r>    -4.5750    11.2738    20.1914 </r>
       <r>    -4.4860    16.6761    21.6762 </r>
       <r>    -4.3969    19.1928    23.3852 </r>
       <r>    -4.3079    17.7694    24.9674 </r>
       <r>    -4.2189    14.7864    26.2840 </r>
       <r>    -4.1298    14.9947    27.6192 </r>
       <r>    -4.0408    19.0916    29.3191 </r>
       <r>    -3.9517    21.6232    31.2445 </r>
       <r>    -3.8627    18.4895    32.8908 </r>
       <r>    -3.7736    13.1408    34.0609 </r>
       <r>    -3.6846    12.0951    35.1378 </r>
       <r>    -3.5956    16.0485    36.5668 </r>
       <r>    -3.5065    19.7654    38.3268 </r>
       <r>    -3.4175    20.3113    40.1353 </r>
       <r>    -3.3284    19.6411    41.8842 </r>
       <r>    -3.2394    19.6430    43.6332 </r>
       <r>    -3.1504    19.4620    45.3662 </r>
       <r>    -3.0613    18.1450    46.9818 </r>
       <r>    -2.9723    17.2516    48.5179 </r>
       <r>    -2.8832    18.6898    50.1821 </r>
       <r>    -2.7942    21.6251    52.1076 </r>
       <r>    -2.7051    23.4764    54.1980 </r>
       <r>    -2.6161    22.2321    56.1776 </r>
       <r>    -2.5271    17.9471    57.7756 </r>
       <r>    -2.4380    13.4696    58.9750 </r>
       <r>    -2.3490    11.7936    60.0251 </r>
       <r>    -2.2599    12.6180    61.1486 </r>
       <r>    -2.1709    13.0012    62.3063 </r>
       <r>    -2.0819    10.6648    63.2559 </r>
       <r>    -1.9928     6.2541    63.8127 </r>
       <r>    -1.9038     2.2976    64.0173 </r>
       <r>    -1.8147     0.2852    64.0427 </r>
       <r>    -1.7257    -0.2170    64.0234 </r>
       <r>    -1.6366    -0.1701    64.0082 </r>
       <r>    -1.5476    -0.0693    64.0021 </r>
       <r>    -1.4586    -0.0191    64.0004 </r>
       <r>    -1.3695    -0.0036    64.0000 </r>
       <r>    -1.2805    -0.0005    64.0000 </r>
       <r>    -1.1914    -0.0001    64.0000 </r>
       <r>    -1.1024    -0.0008    63.9999 </r>
       <r>    -1.0134    -0.0053    63.9995 </r>
       <r>    -0.9243    -0.0214    63.9975 </r>
       <r>    -0.8353    -0.0456    63.9935 </r>
       <r>    -0.7462    -0.0086    63.9927 </r>
       <r>    -0.6572     0.2048    64.0110 </r>
       <r>    -0.5681     0.5091    64.0563 </r>
       <r>    -0.4791     0.6421    64.1135 </r>
       <r>    -0.3901     1.1423    64.2152 </r>
       <r>    -0.3010     3.5617    64.5323 </r>
       <r>    -0.2120     7.7810    65.2252 </r>
       <r>    -0.1229    10.5775    66.1670 </r>
       <r>    -0.0339     9.7233    67.0328 </r>
       <r>     0.0551     7.3779    67.6897 </r>
       <r>     0.1442     7.3426    68.3435 </r>
       <r>     0.2332    11.1409    69.3355 </r>
       <r>     0.3223    17.1516    70.8627 </r>
       <r>     0.4113    21.6768    72.7928 </r>
       <r>     0.5003    22.4207    74.7892 </r>
       <r>     0.5894    21.8900    76.7383 </r>
       <r>     0.6784    24.2251    78.8954 </r>
       <r>     0.7675    29.0955    81.4861 </r>
       <r>     0.8565    31.9205    84.3283 </r>
       <r>     0.9456    30.1986    87.0173 </r>
       <r>     1.0346    27.3476    89.4523 </r>
       <r>     1.1236    28.2562    91.9683 </r>
       <r>     1.2127    32.1697    94.8327 </r>
       <r>     1.3017    33.4146    97.8080 </r>
       <r>     1.3908    28.2354   100.3221 </r>
       <r>     1.4798    18.1675   101.9398 </r>
       <r>     1.5688     7.9025   102.6435 </r>
       <r>     1.6579     1.5839   102.7845 </r>
       <r>     1.7469     0.7680   102.8529 </r>
       <r>     1.8360     4.5501   103.2580 </r>
       <r>     1.9250    10.8964   104.2283 </r>
       <r>     2.0141    17.6565   105.8004 </r>
       <r>     2.1031    21.8082   107.7423 </r>
       <r>     2.1921    20.2595   109.5462 </r>
       <r>     2.2812    14.0423   110.7965 </r>
       <r>     2.3702     8.3236   111.5377 </r>
       <r>     2.4593     7.2043   112.1792 </r>
       <r>     2.5483    11.1713   113.1739 </r>
       <r>     2.6373    16.5898   114.6510 </r>
       <r>     2.7264    17.8470   116.2402 </r>
       <r>     2.8154    14.6754   117.5469 </r>
       <r>     2.9045    13.1720   118.7197 </r>
       <r>     2.9935    16.8083   120.2164 </r>
       <r>     3.0826    22.8609   122.2519 </r>
       <r>     3.1716    28.0532   124.7498 </r>
       <r>     3.2606    30.9491   127.5056 </r>
       <r>     3.3497    30.4436   130.2163 </r>
       <r>     3.4387    27.7397   132.6863 </r>
       <r>     3.5278    25.4945   134.9564 </r>
       <r>     3.6168    23.0025   137.0046 </r>
       <r>     3.7058    18.8337   138.6816 </r>
       <r>     3.7949    15.8121   140.0895 </r>
       <r>     3.8839    17.3752   141.6366 </r>
       <r>     3.9730    21.5041   143.5514 </r>
       <r>     4.0620    22.6389   145.5672 </r>
       <r>     4.1511    19.9536   147.3439 </r>
       <r>     4.2401    19.6713   149.0954 </r>
       <r>     4.3291    25.5820   151.3733 </r>
       <r>     4.4182    32.7176   154.2865 </r>
       <r>     4.5072    35.2167   157.4223 </r>
       <r>     4.5963    33.4910   160.4044 </r>
       <r>     4.6853    31.4346   163.2033 </r>
       <r>     4.7743    32.1881   166.0694 </r>
       <r>     4.8634    35.3346   169.2156 </r>
       <r>     4.9524    36.8225   172.4944 </r>
       <r>     5.0415    34.3664   175.5544 </r>
       <r>     5.1305    30.7990   178.2968 </r>
       <r>     5.2195    29.9660   180.9650 </r>
       <r>     5.3086    31.2085   183.7439 </r>
       <r>     5.3976    31.5360   186.5519 </r>
       <r>     5.4867    32.1222   189.4121 </r>
       <r>     5.5757    35.5314   192.5759 </r>
       <r>     5.6648    38.8624   196.0362 </r>
       <r>     5.7538    38.2856   199.4452 </r>
       <r>     5.8428    35.8090   202.6337 </r>
       <r>     5.9319    34.4615   205.7022 </r>
       <r>     6.0209    32.6585   208.6102 </r>
       <r>     6.1100    29.1982   211.2100 </r>
       <r>     6.1990    28.0558   213.7082 </r>
       <r>     6.2880    31.4066   216.5047 </r>
       <r>     6.3771    34.8446   219.6073 </r>
       <r>     6.4661    34.4724   222.6768 </r>
       <r>     6.5552    31.2254   225.4571 </r>
       <r>     6.6442    28.0722   227.9567 </r>
       <r>     6.7333    27.3256   230.3898 </r>
       <r>     6.8223    29.6071   233.0261 </r>
       <r>     6.9113    33.6118   236.0189 </r>
       <r>     7.0004    35.4806   239.1782 </r>
       <r>     7.0894    31.4015   241.9742 </r>
       <r>     7.1785    22.9842   244.0208 </r>
       <r>     7.2675    15.8953   245.4361 </r>
       <r>     7.3565    13.4804   246.6364 </r>
       <r>     7.4456    15.0431   247.9759 </r>
       <r>     7.5346    18.1127   249.5887 </r>
       <r>     7.6237    19.7987   251.3516 </r>
       <r>     7.7127    18.0786   252.9613 </r>
       <r>     7.8018    13.3064   254.1461 </r>
       <r>     7.8908     8.1238   254.8695 </r>
       <r>     7.9798     5.1838   255.3311 </r>
       <r>     8.0689     4.1018   255.6963 </r>
       <r>     8.1579     2.7541   255.9415 </r>
       <r>     8.2470     0.9957   256.0302 </r>
       <r>     8.3360    -0.0268   256.0278 </r>
       <r>     8.4250    -0.1948   256.0105 </r>
       <r>     8.5141    -0.0911   256.0023 </r>
       <r>     8.6031    -0.0225   256.0003 </r>
       <r>     8.6922    -0.0037   256.0000 </r>
       <r>     8.7812    -0.0022   255.9998 </r>
       <r>     8.8703    -0.0089   255.9990 </r>
       <r>     8.9593    -0.0237   255.9969 </r>
       <r>     9.0483    -0.0202   255.9951 </r>
       <r>     9.1374     0.0789   256.0021 </r>
       <r>     9.2264     0.3195   256.0306 </r>
       <r>     9.3155     0.5772   256.0820 </r>
       <r>     9.4045     0.6939   256.1438 </r>
       <r>     9.4935     0.8675   256.2210 </r>
       <r>     9.5826     1.3994   256.3456 </r>
       <r>     9.6716     1.8096   256.5067 </r>
       <r>     9.7607     1.3414   256.6262 </r>
       <r>     9.8497     0.3527   256.6576 </r>
       <r>     9.9387    -0.1240   256.6465 </r>
       <r>    10.0278     0.4979   256.6909 </r>
       <r>    10.1168     2.1172   256.8794 </r>
       <r>    10.2059     4.1090   257.2453 </r>
       <r>    10.2949     6.1342   257.7915 </r>
       <r>    10.3840     8.3504   258.5350 </r>
       <r>    10.4730    10.4561   259.4660 </r>
       <r>    10.5620    11.5167   260.4915 </r>
       <r>    10.6511    10.6038   261.4357 </r>
       <r>    10.7401     7.5521   262.1081 </r>
       <r>    10.8292     3.5727   262.4262 </r>
       <r>    10.9182     0.5450   262.4748 </r>
       <r>    11.0072    -0.5713   262.4239 </r>
       <r>    11.0963     0.2687   262.4478 </r>
       <r>    11.1853     2.9492   262.7104 </r>
       <r>    11.2744     6.4079   263.2810 </r>
       <r>    11.3634     8.8576   264.0697 </r>
       <r>    11.4525    10.0025   264.9603 </r>
       <r>    11.5415    10.8563   265.9270 </r>
       <r>    11.6305    12.0553   267.0004 </r>
       <r>    11.7196    14.3640   268.2794 </r>
       <r>    11.8086    17.6076   269.8472 </r>
       <r>    11.8977    19.3175   271.5673 </r>
       <r>    11.9867    18.5623   273.2201 </r>
       <r>    12.0757    17.1034   274.7430 </r>
       <r>    12.1648    14.6435   276.0469 </r>
       <r>    12.2538    10.0496   276.9417 </r>
       <r>    12.3429     6.4114   277.5126 </r>
       <r>    12.4319     7.5452   278.1844 </r>
       <r>    12.5210    12.4242   279.2907 </r>
       <r>    12.6100    18.0308   280.8962 </r>
       <r>    12.6990    23.5417   282.9924 </r>
       <r>    12.7881    28.6509   285.5435 </r>
       <r>    12.8771    31.6600   288.3626 </r>
       <r>    12.9662    31.8938   291.2024 </r>
       <r>    13.0552    31.1591   293.9769 </r>
       <r>    13.1442    29.8017   296.6305 </r>
       <r>    13.2333    25.4231   298.8942 </r>
       <r>    13.3223    19.1183   300.5965 </r>
       <r>    13.4114    17.4092   302.1466 </r>
       <r>    13.5004    23.0594   304.1999 </r>
       <r>    13.5895    29.8786   306.8603 </r>
       <r>    13.6785    31.9414   309.7044 </r>
       <r>    13.7675    30.4225   312.4133 </r>
       <r>    13.8566    29.2069   315.0139 </r>
       <r>    13.9456    29.9398   317.6798 </r>
       <r>    14.0347    30.5102   320.3965 </r>
       <r>    14.1237    27.5425   322.8489 </r>
       <r>    14.2127    20.5714   324.6806 </r>
       <r>    14.3018    12.3234   325.7779 </r>
       <r>    14.3908     6.7787   326.3815 </r>
       <r>    14.4799     7.3217   327.0334 </r>
       <r>    14.5689    13.7117   328.2543 </r>
       <r>    14.6580    20.4089   330.0716 </r>
       <r>    14.7470    21.5227   331.9880 </r>
       <r>    14.8360    16.9821   333.5001 </r>
       <r>    14.9251    10.3029   334.4175 </r>
       <r>    15.0141     4.4596   334.8146 </r>
       <r>    15.1032     1.7449   334.9700 </r>
       <r>    15.1922     2.4328   335.1866 </r>
       <r>    15.2812     3.8736   335.5315 </r>
       <r>    15.3703     3.5477   335.8474 </r>
       <r>    15.4593     1.7643   336.0045 </r>
       <r>    15.5484     0.2945   336.0307 </r>
       <r>    15.6374    -0.1725   336.0153 </r>
       <r>    15.7264    -0.1263   336.0041 </r>
       <r>    15.8155    -0.0384   336.0007 </r>
       <r>    15.9045    -0.0068   336.0001 </r>
       <r>    15.9936    -0.0007   336.0000 </r>
       <r>    16.0826    -0.0001   336.0000 </r>
       <r>    16.1717    -0.0000   336.0000 </r>
       <r>    16.2607    -0.0000   336.0000 </r>
       <r>    16.3497    -0.0000   336.0000 </r>
       <r>    16.4388    -0.0000   336.0000 </r>
       <r>    16.5278    -0.0000   336.0000 </r>
       <r>    16.6169    -0.0000   336.0000 </r>
       <r>    16.7059     0.0000   336.0000 </r>
       <r>    16.7949     0.0000   336.0000 </r>
       <r>    16.8840     0.0000   336.0000 </r>
       <r>    16.9730     0.0000   336.0000 </r>
       <r>    17.0621     0.0000   336.0000 </r>
       <r>    17.1511     0.0000   336.0000 </r>
       <r>    17.2402     0.0000   336.0000 </r>
       <r>    17.3292     0.0000   336.0000 </r>
      </set>
     </set>
    </array>
   </total>
  </dos>
 </calculation>
 <structure name="finalpos" >
  <crystal>
   <varray name="basis" >
    <v>       8.74331558       0.00000000       0.00000000 </v>
    <v>       0.00000000       8.74331558       0.00000000 </v>
    <v>       0.00000000       0.00000000       8.74331558 </v>
   </varray>
   <i name="volume">    668.38771987 </i>
   <varray name="rec_basis" >
    <v>       0.11437309       0.00000000       0.00000000 </v>
    <v>       0.00000000       0.11437309       0.00000000 </v>
    <v>       0.00000000       0.00000000       0.11437309 </v>
   </varray>
  </crystal>
  <varray name="positions" >
   <v>       0.12795314       0.12592627       0.11908772 </v>
   <v>       0.12638152       0.36623136       0.37031329 </v>
   <v>       0.36718876       0.11999985       0.37509526 </v>
   <v>       0.37243653       0.38300150       0.12864487 </v>
   <v>       0.12922807       0.12224299       0.63127296 </v>
   <v>       0.12047128       0.37988589       0.87523170 </v>
   <v>       0.37813410       0.11962484       0.86957692 </v>
   <v>       0.37127081       0.37267677       0.62397572 </v>
   <v>       0.12541854       0.63144344       0.12549403 </v>
   <v>       0.12058468       0.87184918       0.37920241 </v>
   <v>       0.37351819       0.63085588       0.37577085 </v>
   <v>       0.37874372       0.87739619       0.12330048 </v>
   <v>       0.12930440       0.61829107       0.62701678 </v>
   <v>       0.12902508       0.87869024       0.86569771 </v>
   <v>       0.38067754       0.63394949       0.87280287 </v>
   <v>       0.37019607       0.87807277       0.62657744 </v>
   <v>       0.62420807       0.12481635       0.11528328 </v>
   <v>       0.63031126       0.37407101       0.36729420 </v>
   <v>       0.87987634       0.12499407       0.38175514 </v>
   <v>       0.87178488       0.38151476       0.12496417 </v>
   <v>       0.62728503       0.12687103       0.62562884 </v>
   <v>       0.61946591       0.37656950       0.86949097 </v>
   <v>       0.87980347       0.12718920       0.87506835 </v>
   <v>       0.86596365       0.37872827       0.62936602 </v>
   <v>       0.62391766       0.62179716       0.12284318 </v>
   <v>       0.62289290       0.87034350       0.37118167 </v>
   <v>       0.86742668       0.62251640       0.36880605 </v>
   <v>       0.86917540       0.87208104       0.13106437 </v>
   <v>       0.62979322       0.62603945       0.62503555 </v>
   <v>       0.62212794       0.87774013       0.88101936 </v>
   <v>       0.87425411       0.62505941       0.87300397 </v>
   <v>       0.86977607       0.88117659       0.62510511 </v>
   <v>       0.99336934       0.00552705       0.99366702 </v>
   <v>       0.99943218       0.24774266       0.24827722 </v>
   <v>       0.24681966       0.99822002       0.24367260 </v>
   <v>       0.24822319       0.24575837       0.00331558 </v>
   <v>       0.00606369       0.01187038       0.50275586 </v>
   <v>       0.99920108       0.24654793       0.74462726 </v>
   <v>       0.24922369       0.00300327       0.75384205 </v>
   <v>       0.25155506       0.25135062       0.49906566 </v>
   <v>       0.99608739       0.49847785       0.99997386 </v>
   <v>       0.99673107       0.75182680       0.24064703 </v>
   <v>       0.25075429       0.49750398       0.25804498 </v>
   <v>       0.24625559       0.75505671       0.99304441 </v>
   <v>       0.99642739       0.49564401       0.50274863 </v>
   <v>       0.99634057       0.75658047       0.74604431 </v>
   <v>       0.25150371       0.49731774       0.75063714 </v>
   <v>       0.25536895       0.75048712       0.50658929 </v>
   <v>       0.50056800       0.99570211       0.99718444 </v>
   <v>       0.50595437       0.24733407       0.24024433 </v>
   <v>       0.75502041       0.00562018       0.26312540 </v>
   <v>       0.75194599       0.24262599       0.00229069 </v>
   <v>       0.49639069       0.00581993       0.49560217 </v>
   <v>       0.49804183       0.25375888       0.74872728 </v>
   <v>       0.74598983       0.99719860       0.74644175 </v>
   <v>       0.74908985       0.24734459       0.49654705 </v>
   <v>       0.50373075       0.50057137       0.99984926 </v>
   <v>       0.49744322       0.74513226       0.25642633 </v>
   <v>       0.75070335       0.50101134       0.25140059 </v>
   <v>       0.74752198       0.74813245       0.00842241 </v>
   <v>       0.50254223       0.49869810       0.50242382 </v>
   <v>       0.49984336       0.75177212       0.75323951 </v>
   <v>       0.74319375       0.49122861       0.74687059 </v>
   <v>       0.75102532       0.73814244       0.50204307 </v>
  </varray>
 </structure>
</modeling>
