unknown system                          
           1
     8.743316    0.000000    0.000000
     0.000000    8.743316    0.000000
     0.000000    0.000000    8.743316
   C    Si
    32    32
Direct configuration=     1
   0.12795314  0.12592627  0.11908772
   0.12638152  0.36623136  0.37031329
   0.36718876  0.11999985  0.37509526
   0.37243653  0.38300150  0.12864487
   0.12922807  0.12224299  0.63127296
   0.12047128  0.37988589  0.87523170
   0.37813410  0.11962484  0.86957692
   0.37127081  0.37267677  0.62397572
   0.12541854  0.63144344  0.12549403
   0.12058468  0.87184918  0.37920241
   0.37351819  0.63085588  0.37577085
   0.37874372  0.87739619  0.12330048
   0.12930440  0.61829107  0.62701678
   0.12902508  0.87869024  0.86569771
   0.38067754  0.63394949  0.87280287
   0.37019607  0.87807277  0.62657744
   0.62420807  0.12481635  0.11528328
   0.63031126  0.37407101  0.36729420
   0.87987634  0.12499407  0.38175514
   0.87178488  0.38151476  0.12496417
   0.62728503  0.12687103  0.62562884
   0.61946591  0.37656950  0.86949097
   0.87980347  0.12718920  0.87506835
   0.86596365  0.37872827  0.62936602
   0.62391766  0.62179716  0.12284318
   0.62289290  0.87034350  0.37118167
   0.86742668  0.62251640  0.36880605
   0.86917540  0.87208104  0.13106437
   0.62979322  0.62603945  0.62503555
   0.62212794  0.87774013  0.88101936
   0.87425411  0.62505941  0.87300397
   0.86977607  0.88117659  0.62510511
   0.99336934  0.00552705  0.99366702
   0.99943218  0.24774266  0.24827722
   0.24681966  0.99822002  0.24367260
   0.24822319  0.24575837  0.00331558
   0.00606369  0.01187038  0.50275586
   0.99920108  0.24654793  0.74462726
   0.24922369  0.00300327  0.75384205
   0.25155506  0.25135062  0.49906566
   0.99608739  0.49847785  0.99997386
   0.99673107  0.75182680  0.24064703
   0.25075429  0.49750398  0.25804498
   0.24625559  0.75505671  0.99304441
   0.99642739  0.49564401  0.50274863
   0.99634057  0.75658047  0.74604431
   0.25150371  0.49731774  0.75063714
   0.25536895  0.75048712  0.50658929
   0.50056800  0.99570211  0.99718444
   0.50595437  0.24733407  0.24024433
   0.75502041  0.00562018  0.26312540
   0.75194599  0.24262599  0.00229069
   0.49639069  0.00581993  0.49560217
   0.49804183  0.25375888  0.74872728
   0.74598983  0.99719860  0.74644175
   0.74908985  0.24734459  0.49654705
   0.50373075  0.50057137  0.99984926
   0.49744322  0.74513226  0.25642633
   0.75070335  0.50101134  0.25140059
   0.74752198  0.74813245  0.00842241
   0.50254223  0.49869810  0.50242382
   0.49984336  0.75177212  0.75323951
   0.74319375  0.49122861  0.74687059
   0.75102532  0.73814244  0.50204307
