       N       E                     dE             d eps       ncg     rms          rms(c)
DAV:   1     0.672899085958E+03    0.67290E+03   -0.99586E+04  4704   0.111E+03
DAV:   2    -0.459972954200E+03   -0.11329E+04   -0.10723E+04  5824   0.221E+02
DAV:   3    -0.535482946786E+03   -0.75510E+02   -0.74792E+02  5680   0.563E+01
DAV:   4    -0.537172676611E+03   -0.16897E+01   -0.16823E+01  5728   0.910E+00
DAV:   5    -0.537219256057E+03   -0.46579E-01   -0.46501E-01  5576   0.144E+00    0.496E+01
DAV:   6    -0.479687328951E+03    0.57532E+02   -0.19226E+02  5344   0.237E+01    0.220E+01
DAV:   7    -0.478364424330E+03    0.13229E+01   -0.16421E+01  5904   0.728E+00    0.983E+00
DAV:   8    -0.478129634472E+03    0.23479E+00   -0.10983E+00  5416   0.207E+00    0.285E+00
DAV:   9    -0.478112216390E+03    0.17418E-01   -0.17172E-01  5488   0.925E-01    0.488E-01
DAV:  10    -0.478114408073E+03   -0.21917E-02   -0.17988E-02  5696   0.314E-01    0.283E-01
DAV:  11    -0.478115743021E+03   -0.13349E-02   -0.31242E-03  5304   0.140E-01    0.127E-01
DAV:  12    -0.478115972401E+03   -0.22938E-03   -0.56730E-04  5512   0.598E-02    0.468E-02
DAV:  13    -0.478115997837E+03   -0.25436E-04   -0.15717E-04  5256   0.280E-02    0.118E-02
DAV:  14    -0.478115999668E+03   -0.18311E-05   -0.67351E-06  5808   0.685E-03    0.612E-03
DAV:  15    -0.478116001697E+03   -0.20295E-05   -0.41528E-06  5408   0.449E-03    0.323E-03
DAV:  16    -0.478116002323E+03   -0.62521E-06   -0.42304E-07  5512   0.166E-03    0.123E-03
DAV:  17    -0.478116002682E+03   -0.35885E-06   -0.11851E-07  5264   0.790E-04    0.781E-04
DAV:  18    -0.478116002670E+03    0.11321E-07   -0.60931E-09  2784   0.222E-04    0.270E-04
DAV:  19    -0.478116002666E+03    0.39581E-08   -0.77104E-09  2712   0.220E-04
   1 F= -.47811600E+03 E0= -.47811978E+03  d E =0.113387E-01
