<?xml version="1.0" encoding="ISO-8859-1"?>
<modeling>
 <generator>
  <i name="program" type="string">vasp </i>
  <i name="version" type="string">6.2.1  </i>
  <i name="subversion" type="string">16May21 (build Jun 06 2020 10:27:25) complex                          parallel </i>
  <i name="platform" type="string">LinuxIFC </i>
  <i name="date" type="string">2024 01 25 </i>
  <i name="time" type="string">17:05:05 </i>
 </generator>
 <incar>
  <i type="int" name="NELM">    60</i>
  <i type="int" name="IBRION">     1</i>
  <i name="EDIFF">      0.00000001</i>
  <i type="int" name="NSW">     0</i>
  <i type="int" name="ISIF">     3</i>
  <i type="int" name="ISYM">     0</i>
  <i type="logical" name="LWAVE"> F  </i>
  <i type="logical" name="LCHARG"> F  </i>
  <i type="string" name="GGA">PE</i>
 </incar>
 <primitive_cell>
  <structure name="primitive_cell" >
   <crystal>
    <varray name="basis" >
     <v>       8.74331558       0.00000000       0.00000000 </v>
     <v>       0.00000000       8.74331558       0.00000000 </v>
     <v>       0.00000000       0.00000000       8.74331558 </v>
    </varray>
    <i name="volume">    668.38771987 </i>
    <varray name="rec_basis" >
     <v>       0.11437309       0.00000000       0.00000000 </v>
     <v>       0.00000000       0.11437309       0.00000000 </v>
     <v>       0.00000000       0.00000000       0.11437309 </v>
    </varray>
   </crystal>
   <varray name="positions" >
    <v>       0.13143845       0.12609170       0.13203395 </v>
    <v>       0.12023755       0.37076801       0.37956686 </v>
    <v>       0.37571818       0.11556405       0.38377046 </v>
    <v>       0.38431814       0.37284875       0.13416258 </v>
    <v>       0.11973634       0.13283857       0.62641857 </v>
    <v>       0.12207858       0.37932264       0.88248383 </v>
    <v>       0.37805066       0.12075912       0.87527493 </v>
    <v>       0.37095791       0.37770820       0.62987382 </v>
    <v>       0.12884541       0.62898735       0.13027272 </v>
    <v>       0.12714738       0.86839574       0.37762086 </v>
    <v>       0.37597139       0.61085551       0.36904205 </v>
    <v>       0.37719299       0.87634897       0.12697064 </v>
    <v>       0.12360404       0.62672396       0.62568347 </v>
    <v>       0.12647575       0.87505672       0.87316267 </v>
    <v>       0.38004977       0.61765870       0.87963211 </v>
    <v>       0.37024654       0.87545181       0.62391378 </v>
    <v>       0.62703667       0.12794743       0.12519473 </v>
    <v>       0.62321731       0.38073742       0.37534749 </v>
    <v>       0.87242784       0.12128437       0.38154165 </v>
    <v>       0.87751330       0.37562190       0.12535476 </v>
    <v>       0.62486824       0.12418491       0.62605547 </v>
    <v>       0.61841371       0.37472056       0.87381669 </v>
    <v>       0.87164608       0.12446905       0.86992571 </v>
    <v>       0.86697083       0.37322515       0.62164797 </v>
    <v>       0.62536726       0.61399899       0.12321880 </v>
    <v>       0.62772204       0.87593572       0.37432680 </v>
    <v>       0.87638190       0.63372531       0.36899988 </v>
    <v>       0.87479886       0.87891769       0.12100328 </v>
    <v>       0.62638607       0.62801714       0.62472928 </v>
    <v>       0.63139090       0.87023078       0.88113459 </v>
    <v>       0.87887006       0.62435355       0.87447269 </v>
    <v>       0.86854463       0.87742846       0.62742428 </v>
    <v>       0.00123708       0.00760339       0.00622379 </v>
    <v>       0.01311662       0.24782878       0.24942214 </v>
    <v>       0.25149190       0.00111031       0.25476917 </v>
    <v>       0.25121434       0.24548349       0.00200955 </v>
    <v>       0.00617426       0.99911676       0.50799560 </v>
    <v>       0.00523822       0.24752265       0.74723136 </v>
    <v>       0.25255927       0.00342532       0.75129941 </v>
    <v>       0.24642411       0.25395089       0.49900161 </v>
    <v>       0.99640878       0.50455106       0.00130624 </v>
    <v>       0.99745663       0.74432460       0.24327461 </v>
    <v>       0.24325719       0.50180898       0.25800718 </v>
    <v>       0.24753251       0.74695791       0.00073813 </v>
    <v>       0.00787930       0.50613365       0.50022302 </v>
    <v>       0.00206214       0.74276298       0.74691741 </v>
    <v>       0.24942777       0.49158729       0.74909832 </v>
    <v>       0.25303151       0.74235458       0.49698502 </v>
    <v>       0.50136235       0.99661445       0.99130194 </v>
    <v>       0.49882295       0.24906463       0.24811373 </v>
    <v>       0.74934987       0.00392245       0.24738788 </v>
    <v>       0.75764576       0.24159661       0.00609448 </v>
    <v>       0.50647965       0.00414715       0.50272860 </v>
    <v>       0.49986187       0.25165132       0.74133956 </v>
    <v>       0.75165444       0.00483615       0.74717057 </v>
    <v>       0.75309675       0.25437693       0.49976151 </v>
    <v>       0.49245292       0.50736620       0.99770351 </v>
    <v>       0.50630536       0.75357528       0.24290558 </v>
    <v>       0.75042518       0.49673705       0.25175461 </v>
    <v>       0.75844171       0.74385642       0.00175170 </v>
    <v>       0.50183612       0.50141540       0.49507623 </v>
    <v>       0.50517468       0.74383768       0.74838094 </v>
    <v>       0.74497969       0.50072712       0.75464483 </v>
    <v>       0.75838719       0.76108090       0.50349954 </v>
   </varray>
  </structure>
  <varray name="primitive_index" >
   <v type="int" >        1 </v>
   <v type="int" >        2 </v>
   <v type="int" >        3 </v>
   <v type="int" >        4 </v>
   <v type="int" >        5 </v>
   <v type="int" >        6 </v>
   <v type="int" >        7 </v>
   <v type="int" >        8 </v>
   <v type="int" >        9 </v>
   <v type="int" >       10 </v>
   <v type="int" >       11 </v>
   <v type="int" >       12 </v>
   <v type="int" >       13 </v>
   <v type="int" >       14 </v>
   <v type="int" >       15 </v>
   <v type="int" >       16 </v>
   <v type="int" >       17 </v>
   <v type="int" >       18 </v>
   <v type="int" >       19 </v>
   <v type="int" >       20 </v>
   <v type="int" >       21 </v>
   <v type="int" >       22 </v>
   <v type="int" >       23 </v>
   <v type="int" >       24 </v>
   <v type="int" >       25 </v>
   <v type="int" >       26 </v>
   <v type="int" >       27 </v>
   <v type="int" >       28 </v>
   <v type="int" >       29 </v>
   <v type="int" >       30 </v>
   <v type="int" >       31 </v>
   <v type="int" >       32 </v>
   <v type="int" >       33 </v>
   <v type="int" >       34 </v>
   <v type="int" >       35 </v>
   <v type="int" >       36 </v>
   <v type="int" >       37 </v>
   <v type="int" >       38 </v>
   <v type="int" >       39 </v>
   <v type="int" >       40 </v>
   <v type="int" >       41 </v>
   <v type="int" >       42 </v>
   <v type="int" >       43 </v>
   <v type="int" >       44 </v>
   <v type="int" >       45 </v>
   <v type="int" >       46 </v>
   <v type="int" >       47 </v>
   <v type="int" >       48 </v>
   <v type="int" >       49 </v>
   <v type="int" >       50 </v>
   <v type="int" >       51 </v>
   <v type="int" >       52 </v>
   <v type="int" >       53 </v>
   <v type="int" >       54 </v>
   <v type="int" >       55 </v>
   <v type="int" >       56 </v>
   <v type="int" >       57 </v>
   <v type="int" >       58 </v>
   <v type="int" >       59 </v>
   <v type="int" >       60 </v>
   <v type="int" >       61 </v>
   <v type="int" >       62 </v>
   <v type="int" >       63 </v>
   <v type="int" >       64 </v>
  </varray>
 </primitive_cell>
 <kpoints>
  <generation param="Monkhorst-Pack">
   <v type="int" name="divisions">       3        3        3 </v>
   <v name="usershift">      0.00000000       0.00000000       0.00000000 </v>
   <v name="genvec1">      0.33333333       0.00000000       0.00000000 </v>
   <v name="genvec2">      0.00000000       0.33333333       0.00000000 </v>
   <v name="genvec3">      0.00000000       0.00000000       0.33333333 </v>
   <v name="shift">      0.00000000       0.00000000       0.00000000 </v>
  </generation>
  <varray name="kpointlist" >
   <v>       0.00000000       0.00000000       0.00000000 </v>
   <v>       0.33333333       0.00000000       0.00000000 </v>
   <v>       0.00000000       0.33333333       0.00000000 </v>
   <v>       0.00000000       0.00000000       0.33333333 </v>
   <v>       0.33333333       0.33333333       0.00000000 </v>
   <v>       0.00000000       0.33333333       0.33333333 </v>
   <v>       0.33333333       0.00000000       0.33333333 </v>
   <v>      -0.33333333       0.33333333       0.00000000 </v>
   <v>      -0.33333333       0.00000000       0.33333333 </v>
   <v>       0.00000000      -0.33333333       0.33333333 </v>
   <v>       0.33333333       0.33333333       0.33333333 </v>
   <v>      -0.33333333       0.33333333       0.33333333 </v>
   <v>      -0.33333333      -0.33333333       0.33333333 </v>
   <v>       0.33333333      -0.33333333       0.33333333 </v>
  </varray>
  <varray name="weights" >
   <v>       0.03703704 </v>
   <v>       0.07407407 </v>
   <v>       0.07407407 </v>
   <v>       0.07407407 </v>
   <v>       0.07407407 </v>
   <v>       0.07407407 </v>
   <v>       0.07407407 </v>
   <v>       0.07407407 </v>
   <v>       0.07407407 </v>
   <v>       0.07407407 </v>
   <v>       0.07407407 </v>
   <v>       0.07407407 </v>
   <v>       0.07407407 </v>
   <v>       0.07407407 </v>
  </varray>
 </kpoints>
 <parameters>
  <separator name="general" >
   <i type="string" name="SYSTEM">unknown system</i>
   <i type="logical" name="LCOMPAT"> F  </i>
  </separator>
  <separator name="electronic" >
   <i type="string" name="PREC">normal</i>
   <i name="ENMAX">    400.00000000</i>
   <i name="ENAUG">    644.87300000</i>
   <i name="EDIFF">      0.00000001</i>
   <i type="int" name="IALGO">    38</i>
   <i type="int" name="IWAVPR">    10</i>
   <i type="int" name="NBANDS">   168</i>
   <i type="int" name="NBANDSLOW">    -1</i>
   <i type="int" name="NBANDSHIGH">    -1</i>
   <i name="NELECT">    256.00000000</i>
   <i type="int" name="TURBO">     0</i>
   <i type="int" name="IRESTART">     0</i>
   <i type="int" name="NREBOOT">     0</i>
   <i type="int" name="NMIN">     0</i>
   <i name="EREF">      0.00000000</i>
   <separator name="electronic smearing" >
    <i type="int" name="ISMEAR">     1</i>
    <i name="SIGMA">      0.20000000</i>
    <i name="KSPACING">      0.50000000</i>
    <i type="logical" name="KGAMMA"> T  </i>
    <i type="logical" name="KBLOWUP"> T  </i>
   </separator>
   <separator name="electronic projectors" >
    <i type="logical" name="LREAL"> F  </i>
    <v name="ROPT">      0.00000000      0.00000000</v>
    <i type="int" name="LMAXPAW">  -100</i>
    <i type="int" name="LMAXMIX">     2</i>
    <i type="logical" name="NLSPLINE"> F  </i>
   </separator>
   <separator name="electronic startup" >
    <i type="int" name="ISTART">     0</i>
    <i type="int" name="ICHARG">     2</i>
    <i type="int" name="INIWAV">     1</i>
   </separator>
   <separator name="electronic spin" >
    <i type="int" name="ISPIN">     1</i>
    <i type="logical" name="LNONCOLLINEAR"> F  </i>
    <v name="MAGMOM">      1.00000000      1.00000000      1.00000000      1.00000000      1.00000000      1.00000000      1.00000000      1.00000000      1.00000000      1.00000000      1.00000000      1.00000000      1.00000000      1.00000000      1.00000000      1.00000000      1.00000000      1.00000000      1.00000000      1.00000000
      1.00000000      1.00000000      1.00000000      1.00000000      1.00000000      1.00000000      1.00000000      1.00000000      1.00000000      1.00000000      1.00000000      1.00000000      1.00000000      1.00000000      1.00000000      1.00000000      1.00000000      1.00000000      1.00000000      1.00000000
      1.00000000      1.00000000      1.00000000      1.00000000      1.00000000      1.00000000      1.00000000      1.00000000      1.00000000      1.00000000      1.00000000      1.00000000      1.00000000      1.00000000      1.00000000      1.00000000      1.00000000      1.00000000      1.00000000      1.00000000
      1.00000000      1.00000000      1.00000000      1.00000000</v>
    <i name="NUPDOWN">     -1.00000000</i>
    <i type="logical" name="LSORBIT"> F  </i>
    <v name="SAXIS">      0.00000000      0.00000000      1.00000000</v>
    <i type="logical" name="LSPIRAL"> F  </i>
    <v name="QSPIRAL">      0.00000000      0.00000000      0.00000000</v>
    <i type="logical" name="LZEROZ"> F  </i>
   </separator>
   <separator name="electronic exchange-correlation" >
    <i type="logical" name="LASPH"> F  </i>
    <i type="logical" name="LMETAGGA"> F  </i>
   </separator>
   <separator name="electronic convergence" >
    <i type="int" name="NELM">    60</i>
    <i type="int" name="NELMDL">    -5</i>
    <i type="int" name="NELMIN">     2</i>
    <i name="ENINI">    400.00000000</i>
    <separator name="electronic convergence detail" >
     <i type="logical" name="LDIAG"> T  </i>
     <i type="logical" name="LSUBROT"> F  </i>
     <i name="WEIMIN">      0.00000000</i>
     <i name="EBREAK">      0.00000000</i>
     <i name="DEPER">      0.30000000</i>
     <i type="int" name="NRMM">     4</i>
     <i name="TIME">      0.40000000</i>
    </separator>
   </separator>
   <separator name="electronic mixer" >
    <i name="AMIX">      0.40000000</i>
    <i name="BMIX">      1.00000000</i>
    <i name="AMIN">      0.10000000</i>
    <i name="AMIX_MAG">      1.60000000</i>
    <i name="BMIX_MAG">      1.00000000</i>
    <separator name="electronic mixer details" >
     <i type="int" name="IMIX">     4</i>
     <i type="logical" name="MIXFIRST"> F  </i>
     <i type="int" name="MAXMIX">   -45</i>
     <i name="WC">    100.00000000</i>
     <i type="int" name="INIMIX">     1</i>
     <i type="int" name="MIXPRE">     1</i>
     <i type="int" name="MREMOVE">     5</i>
    </separator>
   </separator>
   <separator name="electronic dipolcorrection" >
    <i type="logical" name="LDIPOL"> F  </i>
    <i type="logical" name="LMONO"> F  </i>
    <i type="int" name="IDIPOL">     0</i>
    <i name="EPSILON">      1.00000000</i>
    <v name="DIPOL">   -100.00000000   -100.00000000   -100.00000000</v>
    <i name="EFIELD">      0.00000000</i>
   </separator>
  </separator>
  <separator name="grids" >
   <i type="int" name="NGX">    48</i>
   <i type="int" name="NGY">    48</i>
   <i type="int" name="NGZ">    48</i>
   <i type="int" name="NGXF">    96</i>
   <i type="int" name="NGYF">    96</i>
   <i type="int" name="NGZF">    96</i>
   <i type="logical" name="ADDGRID"> F  </i>
  </separator>
  <separator name="ionic" >
   <i type="int" name="NSW">     0</i>
   <i type="int" name="IBRION">    -1</i>
   <i type="int" name="MDALGO">     0</i>
   <i type="int" name="ISIF">     3</i>
   <i name="PSTRESS">      0.00000000</i>
   <i name="EDIFFG">      0.00000010</i>
   <i type="int" name="NFREE">     0</i>
   <i name="POTIM">      0.50000000</i>
   <i name="SMASS">     -3.00000000</i>
   <i name="SCALEE">      1.00000000</i>
  </separator>
  <separator name="ionic md" >
   <i name="TEBEG">      0.00010000</i>
   <i name="TEEND">      0.00010000</i>
   <i type="int" name="NBLOCK">     1</i>
   <i type="int" name="KBLOCK">     1</i>
   <i type="int" name="NPACO">   256</i>
   <i name="APACO">     16.00000000</i>
  </separator>
  <separator name="symmetry" >
   <i type="int" name="ISYM">     0</i>
   <i name="SYMPREC">      0.00001000</i>
  </separator>
  <separator name="dos" >
   <i type="int" name="LORBIT">     0</i>
   <v name="RWIGS">     -1.00000000     -1.00000000</v>
   <i type="int" name="NEDOS">   301</i>
   <i name="EMIN">     10.00000000</i>
   <i name="EMAX">    -10.00000000</i>
   <i name="EFERMI">      0.00000000</i>
  </separator>
  <separator name="writing" >
   <i type="int" name="NWRITE">     2</i>
   <i type="logical" name="LWAVE"> F  </i>
   <i type="logical" name="LDOWNSAMPLE"> F  </i>
   <i type="logical" name="LCHARG"> F  </i>
   <i type="logical" name="LPARD"> F  </i>
   <i type="logical" name="LVTOT"> F  </i>
   <i type="logical" name="LVHAR"> F  </i>
   <i type="logical" name="LELF"> F  </i>
   <i type="logical" name="LOPTICS"> F  </i>
   <v name="STM">      0.00000000      0.00000000      0.00000000      0.00000000      0.00000000      0.00000000      0.00000000</v>
  </separator>
  <separator name="performance" >
   <i type="int" name="NPAR">     8</i>
   <i type="int" name="NSIM">     4</i>
   <i type="int" name="NBLK">    -1</i>
   <i type="logical" name="LPLANE"> T  </i>
   <i type="logical" name="LSCALAPACK"> T  </i>
   <i type="logical" name="LSCAAWARE"> F  </i>
   <i type="logical" name="LSCALU"> F  </i>
   <i type="logical" name="LASYNC"> F  </i>
   <i type="logical" name="LORBITALREAL"> F  </i>
  </separator>
  <separator name="miscellaneous" >
   <i type="int" name="IDIOT">     3</i>
   <i type="int" name="PHON_NSTRUCT">    -1</i>
   <i type="logical" name="LMUSIC"> F  </i>
   <v name="POMASS">     12.01100000     28.08500000</v>
   <v name="DARWINR">      0.00000000      0.00000000</v>
   <v name="DARWINV">      1.00000000      1.00000000</v>
   <i type="logical" name="LCORR"> T  </i>
  </separator>
  <i type="logical" name="GGA_COMPAT"> T  </i>
  <i type="logical" name="LBERRY"> F  </i>
  <i type="int" name="ICORELEVEL">     0</i>
  <i type="logical" name="LDAU"> F  </i>
  <i type="int" name="I_CONSTRAINED_M">     0</i>
  <separator name="electronic exchange-correlation" >
   <i type="string" name="GGA">PE</i>
   <i type="int" name="VOSKOWN">     0</i>
   <i type="logical" name="LHFCALC"> F  </i>
   <i type="string" name="PRECFOCK"></i>
   <i type="logical" name="LSYMGRAD"> F  </i>
   <i type="logical" name="LHFONE"> F  </i>
   <i type="logical" name="LRHFCALC"> F  </i>
   <i type="logical" name="LTHOMAS"> F  </i>
   <i type="logical" name="LMODELHF"> F  </i>
   <i type="logical" name="LFOCKACE"> F  </i>
   <i name="ENCUT4O">     -1.00000000</i>
   <i type="int" name="EXXOEP">     0</i>
   <i type="int" name="FOURORBIT">     0</i>
   <i name="AEXX">      0.00000000</i>
   <i name="HFALPHA">      0.00000000</i>
   <i name="MCALPHA">      0.00000000</i>
   <i name="ALDAX">      1.00000000</i>
   <i name="AGGAX">      1.00000000</i>
   <i name="ALDAC">      1.00000000</i>
   <i name="AGGAC">      1.00000000</i>
   <i type="int" name="NKREDX">     1</i>
   <i type="int" name="NKREDY">     1</i>
   <i type="int" name="NKREDZ">     1</i>
   <i type="logical" name="SHIFTRED"> F  </i>
   <i type="logical" name="ODDONLY"> F  </i>
   <i type="logical" name="EVENONLY"> F  </i>
   <i type="int" name="LMAXFOCK">     0</i>
   <i type="int" name="NMAXFOCKAE">     0</i>
   <i type="logical" name="LFOCKAEDFT"> F  </i>
   <i name="HFSCREEN">      0.00000000</i>
   <i name="HFSCREENC">      0.00000000</i>
   <i type="int" name="NBANDSGWLOW">     0</i>
  </separator>
  <separator name="vdW DFT" >
   <i type="logical" name="LUSE_VDW"> F  </i>
   <i name="Zab_VDW">     -0.84910000</i>
   <i name="PARAM1">      0.12340000</i>
   <i name="PARAM2">      1.00000000</i>
   <i name="PARAM3">      0.00000000</i>
  </separator>
  <separator name="model GW" >
   <i type="int" name="MODEL_GW">     0</i>
   <i name="MODEL_EPS0">      6.26613487</i>
   <i name="MODEL_ALPHA">      1.00000000</i>
  </separator>
  <separator name="linear response parameters" >
   <i type="logical" name="LEPSILON"> F  </i>
   <i type="logical" name="LRPA"> F  </i>
   <i type="logical" name="LNABLA"> F  </i>
   <i type="logical" name="LVEL"> F  </i>
   <i type="int" name="KINTER">     0</i>
   <i name="CSHIFT">      0.10000000</i>
   <i name="OMEGAMAX">     -1.00000000</i>
   <i name="DEG_THRESHOLD">      0.00200000</i>
   <i name="RTIME">     -0.10000000</i>
   <i name="WPLASMAI">      0.00000000</i>
   <v name="DFIELD">      0.00000000      0.00000000      0.00000000</v>
   <v name="WPLASMA">      0.00000000      0.00000000      0.00000000      0.00000000      0.00000000      0.00000000      0.00000000      0.00000000      0.00000000</v>
  </separator>
  <separator name="orbital magnetization" >
   <i type="logical" name="NUCIND"> F  </i>
   <v name="MAGPOS">      0.00000000      0.00000000      0.00000000</v>
   <i type="logical" name="LNICSALL"> T  </i>
   <i type="logical" name="ORBITALMAG"> F  </i>
   <i type="logical" name="LMAGBLOCH"> F  </i>
   <i type="logical" name="LCHIMAG"> F  </i>
   <i type="logical" name="LGAUGE"> T  </i>
   <i type="int" name="MAGATOM">     0</i>
   <v name="MAGDIPOL">      0.00000000      0.00000000      0.00000000</v>
   <v name="AVECCONST">      0.00000000      0.00000000      0.00000000</v>
  </separator>
  <separator name="response functions" >
   <i type="logical" name="LFINITE_TEMPERATURE"> F  </i>
   <i type="logical" name="LADDER"> F  </i>
   <i type="logical" name="LRPAFORCE"> F  </i>
   <i type="logical" name="LFXC"> F  </i>
   <i type="logical" name="LHARTREE"> T  </i>
   <i type="int" name="IBSE">     0</i>
   <v type="int" name="KPOINT">    -1     0     0     0</v>
   <i type="logical" name="LTCTC"> F  </i>
   <i type="logical" name="LTCTE"> F  </i>
   <i type="logical" name="LTETE"> F  </i>
   <i type="logical" name="LTRIPLET"> F  </i>
   <i type="logical" name="LFXCEPS"> F  </i>
   <i type="logical" name="LFXHEG"> F  </i>
   <i type="int" name="NATURALO">     2</i>
   <i type="logical" name="LHOLEGF"> F  </i>
   <i type="logical" name="L2ORDER"> F  </i>
   <i type="logical" name="LDMP1"> F  </i>
   <i type="logical" name="LMP2LT"> F  </i>
   <i type="logical" name="LSMP2LT"> F  </i>
   <i type="logical" name="LGWLF"> F  </i>
   <i name="ENCUTGW">     -2.00000000</i>
   <i name="ENCUTGWSOFT">     -2.00000000</i>
   <i name="ENCUTLF">     -1.00000000</i>
   <i type="logical" name="LESF_SPLINES"> F  </i>
   <i type="int" name="LMAXMP2">    -1</i>
   <i name="SCISSOR">      0.00000000</i>
   <i type="int" name="NOMEGA">     0</i>
   <i type="int" name="NOMEGAR">     0</i>
   <i type="int" name="NBANDSGW">    -1</i>
   <i type="int" name="NBANDSO">    -1</i>
   <i type="int" name="NBANDSV">    -1</i>
   <i type="int" name="NELM">    60</i>
   <i type="int" name="NELMHF">     1</i>
   <i type="int" name="DIM">     3</i>
   <i type="int" name="IESPILON">     4</i>
   <i type="int" name="ANTIRES">     0</i>
   <i name="OMEGAMAX">    -30.00000000</i>
   <i name="OMEGAMIN">    -30.00000000</i>
   <i name="OMEGATL">   -200.00000000</i>
   <i type="int" name="OMEGAGRID">     0</i>
   <i name="CSHIFT">     -0.10000000</i>
   <i type="logical" name="LSELFENERGY"> F  </i>
   <i type="logical" name="LSPECTRAL"> F  </i>
   <i type="logical" name="LSPECTRALGW"> F  </i>
   <i type="logical" name="LSINGLES"> F  </i>
   <i type="logical" name="LFERMIGW"> F  </i>
   <i type="logical" name="ODDONLYGW"> F  </i>
   <i type="logical" name="EVENONLYGW"> F  </i>
   <i type="int" name="NKREDLFX">     1</i>
   <i type="int" name="NKREDLFY">     1</i>
   <i type="int" name="NKREDLFZ">     1</i>
   <i type="int" name="MAXMEM">  2800</i>
   <i type="int" name="TELESCOPE">     0</i>
   <i type="int" name="NTAUPAR">    -1</i>
   <i type="int" name="NOMEGAPAR">    -1</i>
   <i name="DAMP_NEWTON">      0.80000001</i>
   <i name="LAMBDA">      1.00000000</i>
  </separator>
  <separator name="External order field" >
   <i name="OFIELD_KAPPA">      0.00000000</i>
   <v name="OFIELD_K">      0.00000000      0.00000000      0.00000000</v>
   <i name="OFIELD_Q6_NEAR">      0.00000000</i>
   <i name="OFIELD_Q6_FAR">      0.00000000</i>
   <i name="OFIELD_A">      0.00000000</i>
  </separator>
 </parameters>
 <atominfo>
  <atoms>      64 </atoms>
  <types>       2 </types>
  <array name="atoms" >
   <dimension dim="1">ion</dimension>
   <field type="string">element</field>
   <field type="int">atomtype</field>
   <set>
    <rc><c>C </c><c>   1</c></rc>
    <rc><c>C </c><c>   1</c></rc>
    <rc><c>C </c><c>   1</c></rc>
    <rc><c>C </c><c>   1</c></rc>
    <rc><c>C </c><c>   1</c></rc>
    <rc><c>C </c><c>   1</c></rc>
    <rc><c>C </c><c>   1</c></rc>
    <rc><c>C </c><c>   1</c></rc>
    <rc><c>C </c><c>   1</c></rc>
    <rc><c>C </c><c>   1</c></rc>
    <rc><c>C </c><c>   1</c></rc>
    <rc><c>C </c><c>   1</c></rc>
    <rc><c>C </c><c>   1</c></rc>
    <rc><c>C </c><c>   1</c></rc>
    <rc><c>C </c><c>   1</c></rc>
    <rc><c>C </c><c>   1</c></rc>
    <rc><c>C </c><c>   1</c></rc>
    <rc><c>C </c><c>   1</c></rc>
    <rc><c>C </c><c>   1</c></rc>
    <rc><c>C </c><c>   1</c></rc>
    <rc><c>C </c><c>   1</c></rc>
    <rc><c>C </c><c>   1</c></rc>
    <rc><c>C </c><c>   1</c></rc>
    <rc><c>C </c><c>   1</c></rc>
    <rc><c>C </c><c>   1</c></rc>
    <rc><c>C </c><c>   1</c></rc>
    <rc><c>C </c><c>   1</c></rc>
    <rc><c>C </c><c>   1</c></rc>
    <rc><c>C </c><c>   1</c></rc>
    <rc><c>C </c><c>   1</c></rc>
    <rc><c>C </c><c>   1</c></rc>
    <rc><c>C </c><c>   1</c></rc>
    <rc><c>Si</c><c>   2</c></rc>
    <rc><c>Si</c><c>   2</c></rc>
    <rc><c>Si</c><c>   2</c></rc>
    <rc><c>Si</c><c>   2</c></rc>
    <rc><c>Si</c><c>   2</c></rc>
    <rc><c>Si</c><c>   2</c></rc>
    <rc><c>Si</c><c>   2</c></rc>
    <rc><c>Si</c><c>   2</c></rc>
    <rc><c>Si</c><c>   2</c></rc>
    <rc><c>Si</c><c>   2</c></rc>
    <rc><c>Si</c><c>   2</c></rc>
    <rc><c>Si</c><c>   2</c></rc>
    <rc><c>Si</c><c>   2</c></rc>
    <rc><c>Si</c><c>   2</c></rc>
    <rc><c>Si</c><c>   2</c></rc>
    <rc><c>Si</c><c>   2</c></rc>
    <rc><c>Si</c><c>   2</c></rc>
    <rc><c>Si</c><c>   2</c></rc>
    <rc><c>Si</c><c>   2</c></rc>
    <rc><c>Si</c><c>   2</c></rc>
    <rc><c>Si</c><c>   2</c></rc>
    <rc><c>Si</c><c>   2</c></rc>
    <rc><c>Si</c><c>   2</c></rc>
    <rc><c>Si</c><c>   2</c></rc>
    <rc><c>Si</c><c>   2</c></rc>
    <rc><c>Si</c><c>   2</c></rc>
    <rc><c>Si</c><c>   2</c></rc>
    <rc><c>Si</c><c>   2</c></rc>
    <rc><c>Si</c><c>   2</c></rc>
    <rc><c>Si</c><c>   2</c></rc>
    <rc><c>Si</c><c>   2</c></rc>
    <rc><c>Si</c><c>   2</c></rc>
   </set>
  </array>
  <array name="atomtypes" >
   <dimension dim="1">type</dimension>
   <field type="int">atomspertype</field>
   <field type="string">element</field>
   <field>mass</field>
   <field>valence</field>
   <field type="string">pseudopotential</field>
   <set>
    <rc><c>  32</c><c>C </c><c>     12.01100000</c><c>      4.00000000</c><c>  PAW_PBE C 08Apr2002                   </c></rc>
    <rc><c>  32</c><c>Si</c><c>     28.08500000</c><c>      4.00000000</c><c>  PAW_PBE Si 05Jan2001                  </c></rc>
   </set>
  </array>
 </atominfo>
 <structure name="initialpos" >
  <crystal>
   <varray name="basis" >
    <v>       8.74331558       0.00000000       0.00000000 </v>
    <v>       0.00000000       8.74331558       0.00000000 </v>
    <v>       0.00000000       0.00000000       8.74331558 </v>
   </varray>
   <i name="volume">    668.38771987 </i>
   <varray name="rec_basis" >
    <v>       0.11437309       0.00000000       0.00000000 </v>
    <v>       0.00000000       0.11437309       0.00000000 </v>
    <v>       0.00000000       0.00000000       0.11437309 </v>
   </varray>
  </crystal>
  <varray name="positions" >
   <v>       0.13143845       0.12609170       0.13203395 </v>
   <v>       0.12023755       0.37076801       0.37956686 </v>
   <v>       0.37571818       0.11556405       0.38377046 </v>
   <v>       0.38431814       0.37284875       0.13416258 </v>
   <v>       0.11973634       0.13283857       0.62641857 </v>
   <v>       0.12207858       0.37932264       0.88248383 </v>
   <v>       0.37805066       0.12075912       0.87527493 </v>
   <v>       0.37095791       0.37770820       0.62987382 </v>
   <v>       0.12884541       0.62898735       0.13027272 </v>
   <v>       0.12714738       0.86839574       0.37762086 </v>
   <v>       0.37597139       0.61085551       0.36904205 </v>
   <v>       0.37719299       0.87634897       0.12697064 </v>
   <v>       0.12360404       0.62672396       0.62568347 </v>
   <v>       0.12647575       0.87505672       0.87316267 </v>
   <v>       0.38004977       0.61765870       0.87963211 </v>
   <v>       0.37024654       0.87545181       0.62391378 </v>
   <v>       0.62703667       0.12794743       0.12519473 </v>
   <v>       0.62321731       0.38073742       0.37534749 </v>
   <v>       0.87242784       0.12128437       0.38154165 </v>
   <v>       0.87751330       0.37562190       0.12535476 </v>
   <v>       0.62486824       0.12418491       0.62605547 </v>
   <v>       0.61841371       0.37472056       0.87381669 </v>
   <v>       0.87164608       0.12446905       0.86992571 </v>
   <v>       0.86697083       0.37322515       0.62164797 </v>
   <v>       0.62536726       0.61399899       0.12321880 </v>
   <v>       0.62772204       0.87593572       0.37432680 </v>
   <v>       0.87638190       0.63372531       0.36899988 </v>
   <v>       0.87479886       0.87891769       0.12100328 </v>
   <v>       0.62638607       0.62801714       0.62472928 </v>
   <v>       0.63139090       0.87023078       0.88113459 </v>
   <v>       0.87887006       0.62435355       0.87447269 </v>
   <v>       0.86854463       0.87742846       0.62742428 </v>
   <v>       0.00123708       0.00760339       0.00622379 </v>
   <v>       0.01311662       0.24782878       0.24942214 </v>
   <v>       0.25149190       0.00111031       0.25476917 </v>
   <v>       0.25121434       0.24548349       0.00200955 </v>
   <v>       0.00617426       0.99911676       0.50799560 </v>
   <v>       0.00523822       0.24752265       0.74723136 </v>
   <v>       0.25255927       0.00342532       0.75129941 </v>
   <v>       0.24642411       0.25395089       0.49900161 </v>
   <v>       0.99640878       0.50455106       0.00130624 </v>
   <v>       0.99745663       0.74432460       0.24327461 </v>
   <v>       0.24325719       0.50180898       0.25800718 </v>
   <v>       0.24753251       0.74695791       0.00073813 </v>
   <v>       0.00787930       0.50613365       0.50022302 </v>
   <v>       0.00206214       0.74276298       0.74691741 </v>
   <v>       0.24942777       0.49158729       0.74909832 </v>
   <v>       0.25303151       0.74235458       0.49698502 </v>
   <v>       0.50136235       0.99661445       0.99130194 </v>
   <v>       0.49882295       0.24906463       0.24811373 </v>
   <v>       0.74934987       0.00392245       0.24738788 </v>
   <v>       0.75764576       0.24159661       0.00609448 </v>
   <v>       0.50647965       0.00414715       0.50272860 </v>
   <v>       0.49986187       0.25165132       0.74133956 </v>
   <v>       0.75165444       0.00483615       0.74717057 </v>
   <v>       0.75309675       0.25437693       0.49976151 </v>
   <v>       0.49245292       0.50736620       0.99770351 </v>
   <v>       0.50630536       0.75357528       0.24290558 </v>
   <v>       0.75042518       0.49673705       0.25175461 </v>
   <v>       0.75844171       0.74385642       0.00175170 </v>
   <v>       0.50183612       0.50141540       0.49507623 </v>
   <v>       0.50517468       0.74383768       0.74838094 </v>
   <v>       0.74497969       0.50072712       0.75464483 </v>
   <v>       0.75838719       0.76108090       0.50349954 </v>
  </varray>
 </structure>
 <calculation>
  <scstep>
   <time name="dav">   19.31   19.35</time>
   <time name="total">   19.51   19.56</time>
   <energy>
    <i name="alphaZ">    354.85177120 </i>
    <i name="ewald">  -9071.70416494 </i>
    <i name="hartreedc">   -675.65293071 </i>
    <i name="XCdc">    145.93759695 </i>
    <i name="pawpsdc">   6292.66707184 </i>
    <i name="pawaedc">  -5747.90303932 </i>
    <i name="eentropy">      0.00773481 </i>
    <i name="bandstr">   1368.52000293 </i>
    <i name="atom">   8006.17504320 </i>
    <i name="e_fr_energy">    672.89908596 </i>
    <i name="e_wo_entrp">    672.89135114 </i>
    <i name="e_0_energy">    672.89650769 </i>
   </energy>
  </scstep>
  <scstep>
   <time name="dav">   20.62   20.68</time>
   <time name="total">   20.63   20.68</time>
   <energy>
    <i name="e_fr_energy">   -459.97295420 </i>
    <i name="e_wo_entrp">   -459.98711130 </i>
    <i name="e_0_energy">   -459.97767323 </i>
   </energy>
  </scstep>
  <scstep>
   <time name="dav">   16.71   16.81</time>
   <time name="total">   16.72   16.81</time>
   <energy>
    <i name="e_fr_energy">   -535.48294679 </i>
    <i name="e_wo_entrp">   -535.50836407 </i>
    <i name="e_0_energy">   -535.49141921 </i>
   </energy>
  </scstep>
  <scstep>
   <time name="dav">   16.65   16.69</time>
   <time name="total">   16.66   16.70</time>
   <energy>
    <i name="e_fr_energy">   -537.17267661 </i>
    <i name="e_wo_entrp">   -537.19914398 </i>
    <i name="e_0_energy">   -537.18149907 </i>
   </energy>
  </scstep>
  <scstep>
   <time name="dav">   16.17   16.21</time>
   <time name="total">   16.42   16.46</time>
   <energy>
    <i name="e_fr_energy">   -537.21925606 </i>
    <i name="e_wo_entrp">   -537.24570161 </i>
    <i name="e_0_energy">   -537.22807124 </i>
   </energy>
  </scstep>
  <scstep>
   <time name="dav">   15.65   15.69</time>
   <time name="total">   15.98   16.02</time>
   <energy>
    <i name="e_fr_energy">   -479.68732895 </i>
    <i name="e_wo_entrp">   -479.70007565 </i>
    <i name="e_0_energy">   -479.69157785 </i>
   </energy>
  </scstep>
  <scstep>
   <time name="dav">   17.25   17.33</time>
   <time name="total">   17.85   18.17</time>
   <energy>
    <i name="e_fr_energy">   -478.36442433 </i>
    <i name="e_wo_entrp">   -478.37567751 </i>
    <i name="e_0_energy">   -478.36817539 </i>
   </energy>
  </scstep>
  <scstep>
   <time name="dav">   15.89   15.97</time>
   <time name="total">   16.24   16.32</time>
   <energy>
    <i name="e_fr_energy">   -478.12963447 </i>
    <i name="e_wo_entrp">   -478.14104938 </i>
    <i name="e_0_energy">   -478.13343944 </i>
   </energy>
  </scstep>
  <scstep>
   <time name="dav">   28.91   28.99</time>
   <time name="total">   29.54   29.63</time>
   <energy>
    <i name="e_fr_energy">   -478.11221639 </i>
    <i name="e_wo_entrp">   -478.12353658 </i>
    <i name="e_0_energy">   -478.11598979 </i>
   </energy>
  </scstep>
  <scstep>
   <time name="dav">   27.75   27.80</time>
   <time name="total">   28.45   28.54</time>
   <energy>
    <i name="e_fr_energy">   -478.11440807 </i>
    <i name="e_wo_entrp">   -478.12576328 </i>
    <i name="e_0_energy">   -478.11819314 </i>
   </energy>
  </scstep>
  <scstep>
   <time name="dav">   16.21   16.25</time>
   <time name="total">   16.84   16.88</time>
   <energy>
    <i name="e_fr_energy">   -478.11574302 </i>
    <i name="e_wo_entrp">   -478.12708723 </i>
    <i name="e_0_energy">   -478.11952442 </i>
   </energy>
  </scstep>
  <scstep>
   <time name="dav">   16.84   17.10</time>
   <time name="total">   17.38   17.79</time>
   <energy>
    <i name="e_fr_energy">   -478.11597240 </i>
    <i name="e_wo_entrp">   -478.12730902 </i>
    <i name="e_0_energy">   -478.11975127 </i>
   </energy>
  </scstep>
  <scstep>
   <time name="dav">   15.25   15.28</time>
   <time name="total">   15.85   15.94</time>
   <energy>
    <i name="e_fr_energy">   -478.11599784 </i>
    <i name="e_wo_entrp">   -478.12733695 </i>
    <i name="e_0_energy">   -478.11977754 </i>
   </energy>
  </scstep>
  <scstep>
   <time name="dav">   16.52   16.56</time>
   <time name="total">   16.86   16.90</time>
   <energy>
    <i name="e_fr_energy">   -478.11599967 </i>
    <i name="e_wo_entrp">   -478.12733814 </i>
    <i name="e_0_energy">   -478.11977916 </i>
   </energy>
  </scstep>
  <scstep>
   <time name="dav">   15.68   15.72</time>
   <time name="total">   16.02   16.05</time>
   <energy>
    <i name="e_fr_energy">   -478.11600170 </i>
    <i name="e_wo_entrp">   -478.12734052 </i>
    <i name="e_0_energy">   -478.11978130 </i>
   </energy>
  </scstep>
  <scstep>
   <time name="dav">   16.95   16.99</time>
   <time name="total">   17.32   17.37</time>
   <energy>
    <i name="e_fr_energy">   -478.11600232 </i>
    <i name="e_wo_entrp">   -478.12734117 </i>
    <i name="e_0_energy">   -478.11978194 </i>
   </energy>
  </scstep>
  <scstep>
   <time name="dav">   15.24   15.31</time>
   <time name="total">   15.57   15.71</time>
   <energy>
    <i name="e_fr_energy">   -478.11600268 </i>
    <i name="e_wo_entrp">   -478.12734143 </i>
    <i name="e_0_energy">   -478.11978226 </i>
   </energy>
  </scstep>
  <scstep>
   <time name="dav">    9.82    9.87</time>
   <time name="total">   10.15   10.20</time>
   <energy>
    <i name="e_fr_energy">   -478.11600267 </i>
    <i name="e_wo_entrp">   -478.12734138 </i>
    <i name="e_0_energy">   -478.11978224 </i>
   </energy>
  </scstep>
  <scstep>
   <time name="dav">    9.65    9.70</time>
   <time name="total">    9.71    9.76</time>
   <energy>
    <i name="alphaZ">    354.85177120 </i>
    <i name="ewald">  -9071.70416494 </i>
    <i name="hartreedc">  -1029.46485790 </i>
    <i name="XCdc">    179.40911586 </i>
    <i name="pawpsdc">  33299.34948475 </i>
    <i name="pawaedc"> -32760.37907652 </i>
    <i name="eentropy">      0.01133871 </i>
    <i name="bandstr">    543.63534297 </i>
    <i name="atom">   8006.17504320 </i>
    <i name="e_fr_energy">   -478.11600267 </i>
    <i name="e_wo_entrp">   -478.12734137 </i>
    <i name="e_0_energy">   -478.11978223 </i>
   </energy>
  </scstep>
  <structure>
   <crystal>
    <varray name="basis" >
     <v>       8.74331558       0.00000000       0.00000000 </v>
     <v>       0.00000000       8.74331558       0.00000000 </v>
     <v>       0.00000000       0.00000000       8.74331558 </v>
    </varray>
    <i name="volume">    668.38771987 </i>
    <varray name="rec_basis" >
     <v>       0.11437309       0.00000000       0.00000000 </v>
     <v>       0.00000000       0.11437309       0.00000000 </v>
     <v>       0.00000000       0.00000000       0.11437309 </v>
    </varray>
   </crystal>
   <varray name="positions" >
    <v>       0.13143845       0.12609170       0.13203395 </v>
    <v>       0.12023755       0.37076801       0.37956686 </v>
    <v>       0.37571818       0.11556405       0.38377046 </v>
    <v>       0.38431814       0.37284875       0.13416258 </v>
    <v>       0.11973634       0.13283857       0.62641857 </v>
    <v>       0.12207858       0.37932264       0.88248383 </v>
    <v>       0.37805066       0.12075912       0.87527493 </v>
    <v>       0.37095791       0.37770820       0.62987382 </v>
    <v>       0.12884541       0.62898735       0.13027272 </v>
    <v>       0.12714738       0.86839574       0.37762086 </v>
    <v>       0.37597139       0.61085551       0.36904205 </v>
    <v>       0.37719299       0.87634897       0.12697064 </v>
    <v>       0.12360404       0.62672396       0.62568347 </v>
    <v>       0.12647575       0.87505672       0.87316267 </v>
    <v>       0.38004977       0.61765870       0.87963211 </v>
    <v>       0.37024654       0.87545181       0.62391378 </v>
    <v>       0.62703667       0.12794743       0.12519473 </v>
    <v>       0.62321731       0.38073742       0.37534749 </v>
    <v>       0.87242784       0.12128437       0.38154165 </v>
    <v>       0.87751330       0.37562190       0.12535476 </v>
    <v>       0.62486824       0.12418491       0.62605547 </v>
    <v>       0.61841371       0.37472056       0.87381669 </v>
    <v>       0.87164608       0.12446905       0.86992571 </v>
    <v>       0.86697083       0.37322515       0.62164797 </v>
    <v>       0.62536726       0.61399899       0.12321880 </v>
    <v>       0.62772204       0.87593572       0.37432680 </v>
    <v>       0.87638190       0.63372531       0.36899988 </v>
    <v>       0.87479886       0.87891769       0.12100328 </v>
    <v>       0.62638607       0.62801714       0.62472928 </v>
    <v>       0.63139090       0.87023078       0.88113459 </v>
    <v>       0.87887006       0.62435355       0.87447269 </v>
    <v>       0.86854463       0.87742846       0.62742428 </v>
    <v>       0.00123708       0.00760339       0.00622379 </v>
    <v>       0.01311662       0.24782878       0.24942214 </v>
    <v>       0.25149190       0.00111031       0.25476917 </v>
    <v>       0.25121434       0.24548349       0.00200955 </v>
    <v>       0.00617426       0.99911676       0.50799560 </v>
    <v>       0.00523822       0.24752265       0.74723136 </v>
    <v>       0.25255927       0.00342532       0.75129941 </v>
    <v>       0.24642411       0.25395089       0.49900161 </v>
    <v>       0.99640878       0.50455106       0.00130624 </v>
    <v>       0.99745663       0.74432460       0.24327461 </v>
    <v>       0.24325719       0.50180898       0.25800718 </v>
    <v>       0.24753251       0.74695791       0.00073813 </v>
    <v>       0.00787930       0.50613365       0.50022302 </v>
    <v>       0.00206214       0.74276298       0.74691741 </v>
    <v>       0.24942777       0.49158729       0.74909832 </v>
    <v>       0.25303151       0.74235458       0.49698502 </v>
    <v>       0.50136235       0.99661445       0.99130194 </v>
    <v>       0.49882295       0.24906463       0.24811373 </v>
    <v>       0.74934987       0.00392245       0.24738788 </v>
    <v>       0.75764576       0.24159661       0.00609448 </v>
    <v>       0.50647965       0.00414715       0.50272860 </v>
    <v>       0.49986187       0.25165132       0.74133956 </v>
    <v>       0.75165444       0.00483615       0.74717057 </v>
    <v>       0.75309675       0.25437693       0.49976151 </v>
    <v>       0.49245292       0.50736620       0.99770351 </v>
    <v>       0.50630536       0.75357528       0.24290558 </v>
    <v>       0.75042518       0.49673705       0.25175461 </v>
    <v>       0.75844171       0.74385642       0.00175170 </v>
    <v>       0.50183612       0.50141540       0.49507623 </v>
    <v>       0.50517468       0.74383768       0.74838094 </v>
    <v>       0.74497969       0.50072712       0.75464483 </v>
    <v>       0.75838719       0.76108090       0.50349954 </v>
   </varray>
  </structure>
  <varray name="forces" >
   <v>      -0.16168591      -0.51259681      -0.99075450 </v>
   <v>       0.89005090       1.29534928      -0.43800071 </v>
   <v>      -0.25894377       2.38476772      -1.04172599 </v>
   <v>      -2.98800668       0.90776559      -1.77457860 </v>
   <v>       2.08768985      -1.46682679      -0.30990765 </v>
   <v>       0.52026419      -1.28481921      -0.88043243 </v>
   <v>      -0.42596534       1.09532586      -0.68068389 </v>
   <v>       0.71378145      -0.75160279      -2.07534319 </v>
   <v>      -0.81375288      -1.23061982      -1.02173049 </v>
   <v>      -0.48209071       0.65621054      -0.43940227 </v>
   <v>       0.30763755       2.90402833       1.03634620 </v>
   <v>      -0.39493669       0.05073846      -0.76397972 </v>
   <v>       1.33989079      -1.01391954      -0.06857413 </v>
   <v>      -0.42060671       0.09042190       0.43056132 </v>
   <v>      -2.62499375       2.12952026      -2.13957396 </v>
   <v>       1.31679671      -0.51572139       0.18362682 </v>
   <v>      -0.54703911      -0.86581073      -0.16241406 </v>
   <v>       0.56948825      -1.79077937       0.13300712 </v>
   <v>       1.33142590       0.44980698      -1.13160801 </v>
   <v>       0.54689988      -0.56344614       0.49779564 </v>
   <v>       0.42232003       0.84292546      -0.38733433 </v>
   <v>       0.74727627      -0.16996615       0.57271148 </v>
   <v>       1.68430170       0.40479249       1.06706326 </v>
   <v>       2.18632190       1.55900568       1.27966614 </v>
   <v>       0.74460208       1.92465470       0.03855506 </v>
   <v>      -0.13240021       0.14656383       0.01467231 </v>
   <v>      -0.27469363      -1.56338446       1.26141729 </v>
   <v>       0.43913967      -0.42891797       0.70907046 </v>
   <v>       0.51740697      -0.33993392      -0.81353986 </v>
   <v>      -0.32350584       0.16768855      -1.45619415 </v>
   <v>      -0.32741930      -0.22629298      -0.24312765 </v>
   <v>       2.54803474       0.19657610       0.69764081 </v>
   <v>      -0.03891968      -1.39961802      -1.53588505 </v>
   <v>      -3.19284812       0.30140575       0.89619183 </v>
   <v>       0.43044908      -1.53306861       0.32224603 </v>
   <v>       1.11179678       1.31035735       0.19456765 </v>
   <v>      -1.15682454      -0.42497772      -1.32183760 </v>
   <v>      -2.37500210       1.92736253       1.27637905 </v>
   <v>      -0.53143924      -0.82572425      -0.45952948 </v>
   <v>       1.10437384      -1.01048558       0.67434166 </v>
   <v>       0.86671662      -0.68140993       0.48365310 </v>
   <v>       0.49671324       2.51012430       0.96729837 </v>
   <v>       1.05499259      -1.66777833      -1.65352546 </v>
   <v>       1.14782718       0.86623309      -0.30204076 </v>
   <v>      -2.79482999      -0.96701777      -0.21331024 </v>
   <v>      -0.68781838       2.11890483       0.94498637 </v>
   <v>      -0.35343960       1.80243485       1.48276149 </v>
   <v>       0.43759867       0.91985254       0.08985019 </v>
   <v>       0.53673929      -0.02157284       1.73912874 </v>
   <v>       0.87487235      -0.47668236       1.43169055 </v>
   <v>       0.28928627      -0.63100189       0.74826770 </v>
   <v>      -1.44747449       2.03265465      -1.44539660 </v>
   <v>      -0.89940646      -1.87303589      -0.11662124 </v>
   <v>       0.10909731      -0.15831854       1.89158279 </v>
   <v>      -0.85967882      -1.20163057       1.12535164 </v>
   <v>      -1.05332236      -0.76923745      -0.64050956 </v>
   <v>       2.27555357      -3.48640898       1.71971987 </v>
   <v>      -0.35700099      -1.13713921       0.96163386 </v>
   <v>       0.07163726       0.46234945      -0.07899944 </v>
   <v>      -1.28645468       0.74844504      -0.02855055 </v>
   <v>      -0.03453227      -0.01853607       1.26828106 </v>
   <v>      -1.03717321       1.44453342       0.76743095 </v>
   <v>       0.36023111      -0.73928886      -0.73453359 </v>
   <v>      -1.79900854      -1.90322857      -1.55785170 </v>
  </varray>
  <varray name="stress" >
   <v>      14.96866655     -10.32595393       5.37448245 </v>
   <v>     -10.32595395      11.87351254       8.75875291 </v>
   <v>       5.37448243       8.75875289      16.37873946 </v>
  </varray>
  <energy>
   <i name="e_fr_energy">   -478.11600267 </i>
   <i name="e_wo_entrp">   -478.12734137 </i>
   <i name="e_0_energy">   -478.11978223 </i>
  </energy>
  <time name="totalsc">  345.33  347.17</time>
  <eigenvalues>
   <array>
    <dimension dim="1">band</dimension>
    <dimension dim="2">kpoint</dimension>
    <dimension dim="3">spin</dimension>
    <field>eigene</field>
    <field>occ</field>
    <set>
     <set comment="spin 1">
      <set comment="kpoint 1">
       <r>   -7.3850    1.0000 </r>
       <r>   -5.9461    1.0000 </r>
       <r>   -5.9365    1.0000 </r>
       <r>   -5.8925    1.0000 </r>
       <r>   -5.7725    1.0000 </r>
       <r>   -5.7025    1.0000 </r>
       <r>   -5.5795    1.0000 </r>
       <r>   -4.6866    1.0000 </r>
       <r>   -4.5938    1.0000 </r>
       <r>   -4.5695    1.0000 </r>
       <r>   -4.5226    1.0000 </r>
       <r>   -4.4816    1.0000 </r>
       <r>   -4.4242    1.0000 </r>
       <r>   -4.3692    1.0000 </r>
       <r>   -4.3476    1.0000 </r>
       <r>   -4.2336    1.0000 </r>
       <r>   -4.1800    1.0000 </r>
       <r>   -4.1080    1.0000 </r>
       <r>   -4.0287    1.0000 </r>
       <r>   -3.9606    1.0000 </r>
       <r>   -3.7672    1.0000 </r>
       <r>   -3.7068    1.0000 </r>
       <r>   -3.5964    1.0000 </r>
       <r>   -2.6135    1.0000 </r>
       <r>   -2.3830    1.0000 </r>
       <r>   -2.3043    1.0000 </r>
       <r>   -2.2550    1.0000 </r>
       <r>   -2.2233    1.0000 </r>
       <r>   -2.1141    1.0000 </r>
       <r>   -2.0802    1.0000 </r>
       <r>   -2.0419    1.0000 </r>
       <r>   -1.8574    1.0000 </r>
       <r>   -0.6343    1.0000 </r>
       <r>   -0.6203    1.0000 </r>
       <r>   -0.4986    1.0000 </r>
       <r>   -0.3084    1.0000 </r>
       <r>    0.1966    1.0000 </r>
       <r>    0.2173    1.0000 </r>
       <r>    0.2383    1.0000 </r>
       <r>    0.8807    1.0000 </r>
       <r>    0.9152    1.0000 </r>
       <r>    0.9315    1.0000 </r>
       <r>    0.9791    1.0000 </r>
       <r>    1.0022    1.0000 </r>
       <r>    1.0324    1.0000 </r>
       <r>    1.8393    1.0000 </r>
       <r>    1.8519    1.0000 </r>
       <r>    1.9361    1.0000 </r>
       <r>    1.9634    1.0000 </r>
       <r>    2.0010    1.0000 </r>
       <r>    2.0107    1.0000 </r>
       <r>    2.0585    1.0000 </r>
       <r>    2.0815    1.0000 </r>
       <r>    2.1768    1.0000 </r>
       <r>    2.2357    1.0000 </r>
       <r>    2.2535    1.0000 </r>
       <r>    2.2601    1.0000 </r>
       <r>    2.8950    1.0000 </r>
       <r>    2.9471    1.0000 </r>
       <r>    2.9817    1.0000 </r>
       <r>    3.0105    1.0000 </r>
       <r>    3.0438    1.0000 </r>
       <r>    3.1383    1.0000 </r>
       <r>    3.2204    1.0000 </r>
       <r>    3.2812    1.0000 </r>
       <r>    3.2945    1.0000 </r>
       <r>    3.3477    1.0000 </r>
       <r>    3.3753    1.0000 </r>
       <r>    3.3979    1.0000 </r>
       <r>    3.4621    1.0000 </r>
       <r>    3.5595    1.0000 </r>
       <r>    3.5847    1.0000 </r>
       <r>    3.6139    1.0000 </r>
       <r>    3.6422    1.0000 </r>
       <r>    3.6889    1.0000 </r>
       <r>    3.7046    1.0000 </r>
       <r>    3.7279    1.0000 </r>
       <r>    3.7676    1.0000 </r>
       <r>    3.8151    1.0000 </r>
       <r>    3.9154    1.0000 </r>
       <r>    3.9262    1.0000 </r>
       <r>    4.5087    1.0000 </r>
       <r>    4.5378    1.0000 </r>
       <r>    4.5824    1.0000 </r>
       <r>    4.6455    1.0000 </r>
       <r>    4.6611    1.0000 </r>
       <r>    4.7612    1.0000 </r>
       <r>    4.8048    1.0000 </r>
       <r>    4.8217    1.0000 </r>
       <r>    4.8677    1.0000 </r>
       <r>    4.8832    1.0000 </r>
       <r>    4.9544    1.0000 </r>
       <r>    4.9840    1.0000 </r>
       <r>    5.8171    1.0000 </r>
       <r>    5.8511    1.0000 </r>
       <r>    5.9233    1.0000 </r>
       <r>    5.9526    1.0000 </r>
       <r>    6.0150    1.0000 </r>
       <r>    6.0388    1.0000 </r>
       <r>    6.0673    1.0000 </r>
       <r>    6.0950    1.0000 </r>
       <r>    6.1639    1.0000 </r>
       <r>    6.2080    1.0000 </r>
       <r>    6.2556    1.0000 </r>
       <r>    6.2979    1.0000 </r>
       <r>    6.5105    1.0000 </r>
       <r>    6.5701    1.0000 </r>
       <r>    6.6445    1.0000 </r>
       <r>    6.6760    1.0000 </r>
       <r>    6.7086    1.0000 </r>
       <r>    6.7450    1.0000 </r>
       <r>    6.7521    1.0000 </r>
       <r>    6.8447    1.0000 </r>
       <r>    6.8542    1.0000 </r>
       <r>    6.8669    1.0000 </r>
       <r>    6.9536    1.0000 </r>
       <r>    6.9879    1.0000 </r>
       <r>    7.0148    1.0000 </r>
       <r>    7.0603    1.0000 </r>
       <r>    7.0809    1.0000 </r>
       <r>    7.1132    1.0000 </r>
       <r>    7.1632    1.0000 </r>
       <r>    7.2139    1.0000 </r>
       <r>    7.2236    1.0000 </r>
       <r>    7.2701    1.0000 </r>
       <r>    8.0138    1.0300 </r>
       <r>    8.0587    0.9978 </r>
       <r>    8.1593    0.7625 </r>
       <r>    9.1652   -0.0000 </r>
       <r>    9.2830   -0.0000 </r>
       <r>    9.5602   -0.0000 </r>
       <r>   11.8249   -0.0000 </r>
       <r>   11.8457   -0.0000 </r>
       <r>   11.9091   -0.0000 </r>
       <r>   11.9707   -0.0000 </r>
       <r>   12.0172   -0.0000 </r>
       <r>   12.0941   -0.0000 </r>
       <r>   12.1873   -0.0000 </r>
       <r>   12.2249   -0.0000 </r>
       <r>   12.3001   -0.0000 </r>
       <r>   12.8479   -0.0000 </r>
       <r>   12.9106   -0.0000 </r>
       <r>   12.9677   -0.0000 </r>
       <r>   13.0992   -0.0000 </r>
       <r>   13.1603   -0.0000 </r>
       <r>   13.1612   -0.0000 </r>
       <r>   13.1943   -0.0000 </r>
       <r>   13.2447   -0.0000 </r>
       <r>   13.2630   -0.0000 </r>
       <r>   13.2926   -0.0000 </r>
       <r>   13.3118   -0.0000 </r>
       <r>   13.3785   -0.0000 </r>
       <r>   13.4070   -0.0000 </r>
       <r>   13.4438   -0.0000 </r>
       <r>   13.4843   -0.0000 </r>
       <r>   13.5066   -0.0000 </r>
       <r>   13.5236   -0.0000 </r>
       <r>   13.5489   -0.0000 </r>
       <r>   13.6053   -0.0000 </r>
       <r>   13.6197   -0.0000 </r>
       <r>   13.6713   -0.0000 </r>
       <r>   13.6754   -0.0000 </r>
       <r>   14.0090    0.0000 </r>
       <r>   14.1352    0.0000 </r>
       <r>   14.2056    0.0000 </r>
       <r>   14.2298    0.0000 </r>
       <r>   14.2681    0.0000 </r>
       <r>   14.3217    0.0000 </r>
      </set>
      <set comment="kpoint 2">
       <r>   -7.2169    1.0000 </r>
       <r>   -6.6549    1.0000 </r>
       <r>   -5.7905    1.0000 </r>
       <r>   -5.7398    1.0000 </r>
       <r>   -5.6396    1.0000 </r>
       <r>   -5.4969    1.0000 </r>
       <r>   -5.2519    1.0000 </r>
       <r>   -5.1594    1.0000 </r>
       <r>   -5.1291    1.0000 </r>
       <r>   -4.9597    1.0000 </r>
       <r>   -4.6488    1.0000 </r>
       <r>   -4.5645    1.0000 </r>
       <r>   -4.3137    1.0000 </r>
       <r>   -4.1855    1.0000 </r>
       <r>   -4.1563    1.0000 </r>
       <r>   -4.0931    1.0000 </r>
       <r>   -4.0086    1.0000 </r>
       <r>   -3.8940    1.0000 </r>
       <r>   -3.7614    1.0000 </r>
       <r>   -3.5221    1.0000 </r>
       <r>   -3.4547    1.0000 </r>
       <r>   -3.3715    1.0000 </r>
       <r>   -3.2859    1.0000 </r>
       <r>   -3.1785    1.0000 </r>
       <r>   -2.6584    1.0000 </r>
       <r>   -2.5843    1.0000 </r>
       <r>   -2.5432    1.0000 </r>
       <r>   -2.4421    1.0000 </r>
       <r>   -2.3179    1.0000 </r>
       <r>   -2.2220    1.0000 </r>
       <r>   -2.1241    1.0000 </r>
       <r>   -2.0476    1.0000 </r>
       <r>   -0.1984    1.0000 </r>
       <r>   -0.1745    1.0000 </r>
       <r>   -0.0476    1.0000 </r>
       <r>    0.1379    1.0000 </r>
       <r>    0.3332    1.0000 </r>
       <r>    0.3575    1.0000 </r>
       <r>    0.6734    1.0000 </r>
       <r>    0.7166    1.0000 </r>
       <r>    0.8887    1.0000 </r>
       <r>    0.9449    1.0000 </r>
       <r>    0.9745    1.0000 </r>
       <r>    1.0116    1.0000 </r>
       <r>    1.0488    1.0000 </r>
       <r>    1.0951    1.0000 </r>
       <r>    1.1648    1.0000 </r>
       <r>    1.2301    1.0000 </r>
       <r>    1.3015    1.0000 </r>
       <r>    1.3596    1.0000 </r>
       <r>    1.4150    1.0000 </r>
       <r>    1.4525    1.0000 </r>
       <r>    1.4989    1.0000 </r>
       <r>    2.5660    1.0000 </r>
       <r>    2.5824    1.0000 </r>
       <r>    2.6576    1.0000 </r>
       <r>    2.7237    1.0000 </r>
       <r>    2.8135    1.0000 </r>
       <r>    2.8598    1.0000 </r>
       <r>    2.8856    1.0000 </r>
       <r>    2.9426    1.0000 </r>
       <r>    2.9775    1.0000 </r>
       <r>    3.0504    1.0000 </r>
       <r>    3.0719    1.0000 </r>
       <r>    3.1038    1.0000 </r>
       <r>    3.1747    1.0000 </r>
       <r>    3.4755    1.0000 </r>
       <r>    3.5215    1.0000 </r>
       <r>    3.6249    1.0000 </r>
       <r>    3.6685    1.0000 </r>
       <r>    3.9186    1.0000 </r>
       <r>    3.9732    1.0000 </r>
       <r>    4.0273    1.0000 </r>
       <r>    4.0790    1.0000 </r>
       <r>    4.2707    1.0000 </r>
       <r>    4.2942    1.0000 </r>
       <r>    4.3453    1.0000 </r>
       <r>    4.3854    1.0000 </r>
       <r>    4.4151    1.0000 </r>
       <r>    4.4255    1.0000 </r>
       <r>    4.4612    1.0000 </r>
       <r>    4.4671    1.0000 </r>
       <r>    4.5331    1.0000 </r>
       <r>    4.5985    1.0000 </r>
       <r>    4.6635    1.0000 </r>
       <r>    4.6994    1.0000 </r>
       <r>    4.7505    1.0000 </r>
       <r>    4.8174    1.0000 </r>
       <r>    4.8943    1.0000 </r>
       <r>    4.9479    1.0000 </r>
       <r>    5.0184    1.0000 </r>
       <r>    5.0449    1.0000 </r>
       <r>    5.3807    1.0000 </r>
       <r>    5.4242    1.0000 </r>
       <r>    5.4859    1.0000 </r>
       <r>    5.5447    1.0000 </r>
       <r>    5.6446    1.0000 </r>
       <r>    5.7200    1.0000 </r>
       <r>    5.7973    1.0000 </r>
       <r>    5.8394    1.0000 </r>
       <r>    5.9147    1.0000 </r>
       <r>    5.9849    1.0000 </r>
       <r>    6.0950    1.0000 </r>
       <r>    6.1461    1.0000 </r>
       <r>    6.1950    1.0000 </r>
       <r>    6.3470    1.0000 </r>
       <r>    6.3906    1.0000 </r>
       <r>    6.4201    1.0000 </r>
       <r>    6.4865    1.0000 </r>
       <r>    6.5271    1.0000 </r>
       <r>    6.5775    1.0000 </r>
       <r>    6.6536    1.0000 </r>
       <r>    6.7025    1.0000 </r>
       <r>    6.7411    1.0000 </r>
       <r>    6.8440    1.0000 </r>
       <r>    6.8668    1.0000 </r>
       <r>    6.9024    1.0000 </r>
       <r>    6.9553    1.0000 </r>
       <r>    6.9920    1.0000 </r>
       <r>    7.0342    1.0000 </r>
       <r>    7.0670    1.0000 </r>
       <r>    7.0928    1.0000 </r>
       <r>    7.1291    1.0000 </r>
       <r>    7.1852    1.0000 </r>
       <r>    7.2027    1.0000 </r>
       <r>    7.5481    1.0000 </r>
       <r>    7.7014    1.0007 </r>
       <r>    7.8105    1.0063 </r>
       <r>    9.5951   -0.0000 </r>
       <r>   10.1015   -0.0000 </r>
       <r>   10.2574   -0.0000 </r>
       <r>   10.6131   -0.0000 </r>
       <r>   11.8830   -0.0000 </r>
       <r>   11.9531   -0.0000 </r>
       <r>   12.3562   -0.0000 </r>
       <r>   12.4256   -0.0000 </r>
       <r>   12.4964   -0.0000 </r>
       <r>   12.5598   -0.0000 </r>
       <r>   12.6679   -0.0000 </r>
       <r>   12.7225   -0.0000 </r>
       <r>   12.8348   -0.0000 </r>
       <r>   12.8880   -0.0000 </r>
       <r>   12.9508   -0.0000 </r>
       <r>   12.9922   -0.0000 </r>
       <r>   13.0071   -0.0000 </r>
       <r>   13.0346   -0.0000 </r>
       <r>   13.1030   -0.0000 </r>
       <r>   13.1855   -0.0000 </r>
       <r>   13.2011   -0.0000 </r>
       <r>   13.2868   -0.0000 </r>
       <r>   13.3610   -0.0000 </r>
       <r>   13.4896   -0.0000 </r>
       <r>   13.5228   -0.0000 </r>
       <r>   13.5808   -0.0000 </r>
       <r>   13.5992   -0.0000 </r>
       <r>   13.6535   -0.0000 </r>
       <r>   13.6767   -0.0000 </r>
       <r>   13.7142    0.0000 </r>
       <r>   13.7652    0.0000 </r>
       <r>   13.8864    0.0000 </r>
       <r>   13.9406    0.0000 </r>
       <r>   13.9745    0.0000 </r>
       <r>   14.0968    0.0000 </r>
       <r>   14.4292    0.0000 </r>
       <r>   14.6345    0.0000 </r>
       <r>   14.7181    0.0000 </r>
       <r>   14.7535    0.0000 </r>
       <r>   14.8083    0.0000 </r>
      </set>
      <set comment="kpoint 3">
       <r>   -7.2103    1.0000 </r>
       <r>   -6.6803    1.0000 </r>
       <r>   -5.7516    1.0000 </r>
       <r>   -5.7057    1.0000 </r>
       <r>   -5.6096    1.0000 </r>
       <r>   -5.5507    1.0000 </r>
       <r>   -5.2306    1.0000 </r>
       <r>   -5.1986    1.0000 </r>
       <r>   -5.1182    1.0000 </r>
       <r>   -5.0422    1.0000 </r>
       <r>   -4.6239    1.0000 </r>
       <r>   -4.4695    1.0000 </r>
       <r>   -4.2734    1.0000 </r>
       <r>   -4.2254    1.0000 </r>
       <r>   -4.2003    1.0000 </r>
       <r>   -4.1300    1.0000 </r>
       <r>   -3.9905    1.0000 </r>
       <r>   -3.9126    1.0000 </r>
       <r>   -3.8174    1.0000 </r>
       <r>   -3.4575    1.0000 </r>
       <r>   -3.4291    1.0000 </r>
       <r>   -3.3614    1.0000 </r>
       <r>   -3.2990    1.0000 </r>
       <r>   -3.2028    1.0000 </r>
       <r>   -2.6157    1.0000 </r>
       <r>   -2.5784    1.0000 </r>
       <r>   -2.4994    1.0000 </r>
       <r>   -2.4687    1.0000 </r>
       <r>   -2.3457    1.0000 </r>
       <r>   -2.2819    1.0000 </r>
       <r>   -2.1326    1.0000 </r>
       <r>   -1.9990    1.0000 </r>
       <r>   -0.1705    1.0000 </r>
       <r>   -0.1533    1.0000 </r>
       <r>   -0.0576    1.0000 </r>
       <r>    0.1058    1.0000 </r>
       <r>    0.3480    1.0000 </r>
       <r>    0.3749    1.0000 </r>
       <r>    0.6520    1.0000 </r>
       <r>    0.6727    1.0000 </r>
       <r>    0.8417    1.0000 </r>
       <r>    0.9309    1.0000 </r>
       <r>    0.9555    1.0000 </r>
       <r>    1.0039    1.0000 </r>
       <r>    1.0504    1.0000 </r>
       <r>    1.1312    1.0000 </r>
       <r>    1.1897    1.0000 </r>
       <r>    1.2322    1.0000 </r>
       <r>    1.3288    1.0000 </r>
       <r>    1.3581    1.0000 </r>
       <r>    1.3990    1.0000 </r>
       <r>    1.4713    1.0000 </r>
       <r>    1.5166    1.0000 </r>
       <r>    2.5824    1.0000 </r>
       <r>    2.6130    1.0000 </r>
       <r>    2.6768    1.0000 </r>
       <r>    2.7141    1.0000 </r>
       <r>    2.7847    1.0000 </r>
       <r>    2.8538    1.0000 </r>
       <r>    2.8816    1.0000 </r>
       <r>    2.9264    1.0000 </r>
       <r>    2.9721    1.0000 </r>
       <r>    3.0453    1.0000 </r>
       <r>    3.0847    1.0000 </r>
       <r>    3.0991    1.0000 </r>
       <r>    3.1338    1.0000 </r>
       <r>    3.5140    1.0000 </r>
       <r>    3.5169    1.0000 </r>
       <r>    3.6468    1.0000 </r>
       <r>    3.6692    1.0000 </r>
       <r>    3.9101    1.0000 </r>
       <r>    3.9427    1.0000 </r>
       <r>    3.9970    1.0000 </r>
       <r>    4.0778    1.0000 </r>
       <r>    4.2494    1.0000 </r>
       <r>    4.2682    1.0000 </r>
       <r>    4.3459    1.0000 </r>
       <r>    4.3811    1.0000 </r>
       <r>    4.4013    1.0000 </r>
       <r>    4.4298    1.0000 </r>
       <r>    4.4813    1.0000 </r>
       <r>    4.5248    1.0000 </r>
       <r>    4.5882    1.0000 </r>
       <r>    4.6298    1.0000 </r>
       <r>    4.6721    1.0000 </r>
       <r>    4.7274    1.0000 </r>
       <r>    4.7647    1.0000 </r>
       <r>    4.8231    1.0000 </r>
       <r>    4.8695    1.0000 </r>
       <r>    4.9552    1.0000 </r>
       <r>    4.9911    1.0000 </r>
       <r>    5.0132    1.0000 </r>
       <r>    5.3390    1.0000 </r>
       <r>    5.3961    1.0000 </r>
       <r>    5.5108    1.0000 </r>
       <r>    5.5975    1.0000 </r>
       <r>    5.6172    1.0000 </r>
       <r>    5.6937    1.0000 </r>
       <r>    5.8132    1.0000 </r>
       <r>    5.8607    1.0000 </r>
       <r>    5.9259    1.0000 </r>
       <r>    5.9461    1.0000 </r>
       <r>    6.1388    1.0000 </r>
       <r>    6.1531    1.0000 </r>
       <r>    6.2604    1.0000 </r>
       <r>    6.3121    1.0000 </r>
       <r>    6.3836    1.0000 </r>
       <r>    6.3929    1.0000 </r>
       <r>    6.4780    1.0000 </r>
       <r>    6.5355    1.0000 </r>
       <r>    6.5774    1.0000 </r>
       <r>    6.6623    1.0000 </r>
       <r>    6.7034    1.0000 </r>
       <r>    6.7569    1.0000 </r>
       <r>    6.7772    1.0000 </r>
       <r>    6.8300    1.0000 </r>
       <r>    6.8816    1.0000 </r>
       <r>    6.9167    1.0000 </r>
       <r>    6.9733    1.0000 </r>
       <r>    7.0304    1.0000 </r>
       <r>    7.0644    1.0000 </r>
       <r>    7.1199    1.0000 </r>
       <r>    7.1449    1.0000 </r>
       <r>    7.2225    1.0000 </r>
       <r>    7.2351    1.0000 </r>
       <r>    7.5393    1.0000 </r>
       <r>    7.7318    1.0013 </r>
       <r>    7.7992    1.0051 </r>
       <r>    9.6310   -0.0000 </r>
       <r>   10.0295   -0.0000 </r>
       <r>   10.3295   -0.0000 </r>
       <r>   10.5792   -0.0000 </r>
       <r>   11.7783   -0.0000 </r>
       <r>   12.0213   -0.0000 </r>
       <r>   12.3651   -0.0000 </r>
       <r>   12.4255   -0.0000 </r>
       <r>   12.5169   -0.0000 </r>
       <r>   12.6364   -0.0000 </r>
       <r>   12.6721   -0.0000 </r>
       <r>   12.7496   -0.0000 </r>
       <r>   12.8001   -0.0000 </r>
       <r>   12.8378   -0.0000 </r>
       <r>   12.9265   -0.0000 </r>
       <r>   12.9481   -0.0000 </r>
       <r>   13.0178   -0.0000 </r>
       <r>   13.0487   -0.0000 </r>
       <r>   13.0770   -0.0000 </r>
       <r>   13.1418   -0.0000 </r>
       <r>   13.1783   -0.0000 </r>
       <r>   13.2455   -0.0000 </r>
       <r>   13.4753   -0.0000 </r>
       <r>   13.4879   -0.0000 </r>
       <r>   13.5582   -0.0000 </r>
       <r>   13.5903   -0.0000 </r>
       <r>   13.6270   -0.0000 </r>
       <r>   13.6587   -0.0000 </r>
       <r>   13.6800   -0.0000 </r>
       <r>   13.7100    0.0000 </r>
       <r>   13.7642    0.0000 </r>
       <r>   13.8785    0.0000 </r>
       <r>   13.9275    0.0000 </r>
       <r>   13.9861    0.0000 </r>
       <r>   14.0779    0.0000 </r>
       <r>   14.4415    0.0000 </r>
       <r>   14.6017    0.0000 </r>
       <r>   14.6843    0.0000 </r>
       <r>   14.7345    0.0000 </r>
       <r>   14.8254    0.0000 </r>
      </set>
      <set comment="kpoint 4">
       <r>   -7.2077    1.0000 </r>
       <r>   -6.6788    1.0000 </r>
       <r>   -5.7835    1.0000 </r>
       <r>   -5.7513    1.0000 </r>
       <r>   -5.6233    1.0000 </r>
       <r>   -5.4351    1.0000 </r>
       <r>   -5.2937    1.0000 </r>
       <r>   -5.2234    1.0000 </r>
       <r>   -5.1166    1.0000 </r>
       <r>   -4.9197    1.0000 </r>
       <r>   -4.6525    1.0000 </r>
       <r>   -4.4589    1.0000 </r>
       <r>   -4.3470    1.0000 </r>
       <r>   -4.2484    1.0000 </r>
       <r>   -4.1983    1.0000 </r>
       <r>   -4.1053    1.0000 </r>
       <r>   -3.9825    1.0000 </r>
       <r>   -3.8733    1.0000 </r>
       <r>   -3.7771    1.0000 </r>
       <r>   -3.5205    1.0000 </r>
       <r>   -3.4719    1.0000 </r>
       <r>   -3.3839    1.0000 </r>
       <r>   -3.2613    1.0000 </r>
       <r>   -3.1839    1.0000 </r>
       <r>   -2.6608    1.0000 </r>
       <r>   -2.6271    1.0000 </r>
       <r>   -2.5015    1.0000 </r>
       <r>   -2.3706    1.0000 </r>
       <r>   -2.2905    1.0000 </r>
       <r>   -2.2180    1.0000 </r>
       <r>   -2.1863    1.0000 </r>
       <r>   -2.0674    1.0000 </r>
       <r>   -0.1987    1.0000 </r>
       <r>   -0.1619    1.0000 </r>
       <r>   -0.0400    1.0000 </r>
       <r>    0.1479    1.0000 </r>
       <r>    0.3403    1.0000 </r>
       <r>    0.3737    1.0000 </r>
       <r>    0.6562    1.0000 </r>
       <r>    0.7130    1.0000 </r>
       <r>    0.8348    1.0000 </r>
       <r>    0.8789    1.0000 </r>
       <r>    0.9828    1.0000 </r>
       <r>    1.0125    1.0000 </r>
       <r>    1.0545    1.0000 </r>
       <r>    1.1407    1.0000 </r>
       <r>    1.1755    1.0000 </r>
       <r>    1.2243    1.0000 </r>
       <r>    1.3048    1.0000 </r>
       <r>    1.3279    1.0000 </r>
       <r>    1.4106    1.0000 </r>
       <r>    1.4558    1.0000 </r>
       <r>    1.5307    1.0000 </r>
       <r>    2.5800    1.0000 </r>
       <r>    2.6429    1.0000 </r>
       <r>    2.6870    1.0000 </r>
       <r>    2.7209    1.0000 </r>
       <r>    2.8070    1.0000 </r>
       <r>    2.8382    1.0000 </r>
       <r>    2.8822    1.0000 </r>
       <r>    2.9223    1.0000 </r>
       <r>    2.9685    1.0000 </r>
       <r>    3.0324    1.0000 </r>
       <r>    3.0809    1.0000 </r>
       <r>    3.1383    1.0000 </r>
       <r>    3.1776    1.0000 </r>
       <r>    3.4761    1.0000 </r>
       <r>    3.5255    1.0000 </r>
       <r>    3.6333    1.0000 </r>
       <r>    3.6649    1.0000 </r>
       <r>    3.9108    1.0000 </r>
       <r>    3.9618    1.0000 </r>
       <r>    4.0350    1.0000 </r>
       <r>    4.0651    1.0000 </r>
       <r>    4.2373    1.0000 </r>
       <r>    4.2574    1.0000 </r>
       <r>    4.3263    1.0000 </r>
       <r>    4.3563    1.0000 </r>
       <r>    4.3887    1.0000 </r>
       <r>    4.4236    1.0000 </r>
       <r>    4.4761    1.0000 </r>
       <r>    4.4980    1.0000 </r>
       <r>    4.5386    1.0000 </r>
       <r>    4.6318    1.0000 </r>
       <r>    4.6836    1.0000 </r>
       <r>    4.7217    1.0000 </r>
       <r>    4.7484    1.0000 </r>
       <r>    4.8040    1.0000 </r>
       <r>    4.9173    1.0000 </r>
       <r>    4.9592    1.0000 </r>
       <r>    5.0018    1.0000 </r>
       <r>    5.0571    1.0000 </r>
       <r>    5.3303    1.0000 </r>
       <r>    5.4397    1.0000 </r>
       <r>    5.4674    1.0000 </r>
       <r>    5.5665    1.0000 </r>
       <r>    5.6256    1.0000 </r>
       <r>    5.7164    1.0000 </r>
       <r>    5.7812    1.0000 </r>
       <r>    5.8408    1.0000 </r>
       <r>    5.9207    1.0000 </r>
       <r>    5.9686    1.0000 </r>
       <r>    6.1176    1.0000 </r>
       <r>    6.1612    1.0000 </r>
       <r>    6.2016    1.0000 </r>
       <r>    6.3380    1.0000 </r>
       <r>    6.3623    1.0000 </r>
       <r>    6.4115    1.0000 </r>
       <r>    6.4560    1.0000 </r>
       <r>    6.5096    1.0000 </r>
       <r>    6.6300    1.0000 </r>
       <r>    6.6527    1.0000 </r>
       <r>    6.7340    1.0000 </r>
       <r>    6.8210    1.0000 </r>
       <r>    6.8580    1.0000 </r>
       <r>    6.8698    1.0000 </r>
       <r>    6.8903    1.0000 </r>
       <r>    6.9440    1.0000 </r>
       <r>    6.9729    1.0000 </r>
       <r>    7.0134    1.0000 </r>
       <r>    7.0715    1.0000 </r>
       <r>    7.0972    1.0000 </r>
       <r>    7.1284    1.0000 </r>
       <r>    7.1614    1.0000 </r>
       <r>    7.2169    1.0000 </r>
       <r>    7.5520    1.0000 </r>
       <r>    7.7153    1.0009 </r>
       <r>    7.7897    1.0043 </r>
       <r>    9.6035   -0.0000 </r>
       <r>   10.0759   -0.0000 </r>
       <r>   10.2868   -0.0000 </r>
       <r>   10.5842   -0.0000 </r>
       <r>   11.8151   -0.0000 </r>
       <r>   11.9689   -0.0000 </r>
       <r>   12.3722   -0.0000 </r>
       <r>   12.4583   -0.0000 </r>
       <r>   12.5523   -0.0000 </r>
       <r>   12.5768   -0.0000 </r>
       <r>   12.6303   -0.0000 </r>
       <r>   12.7495   -0.0000 </r>
       <r>   12.8384   -0.0000 </r>
       <r>   12.8755   -0.0000 </r>
       <r>   12.9156   -0.0000 </r>
       <r>   12.9775   -0.0000 </r>
       <r>   12.9951   -0.0000 </r>
       <r>   13.0391   -0.0000 </r>
       <r>   13.0956   -0.0000 </r>
       <r>   13.1423   -0.0000 </r>
       <r>   13.1754   -0.0000 </r>
       <r>   13.2583   -0.0000 </r>
       <r>   13.4562   -0.0000 </r>
       <r>   13.5307   -0.0000 </r>
       <r>   13.5617   -0.0000 </r>
       <r>   13.5818   -0.0000 </r>
       <r>   13.6133   -0.0000 </r>
       <r>   13.6361   -0.0000 </r>
       <r>   13.6769   -0.0000 </r>
       <r>   13.6966    0.0000 </r>
       <r>   13.7405    0.0000 </r>
       <r>   13.8978    0.0000 </r>
       <r>   13.9334    0.0000 </r>
       <r>   13.9666    0.0000 </r>
       <r>   14.0547    0.0000 </r>
       <r>   14.4290    0.0000 </r>
       <r>   14.6279    0.0000 </r>
       <r>   14.6807    0.0000 </r>
       <r>   14.7459    0.0000 </r>
       <r>   14.8430    0.0000 </r>
      </set>
      <set comment="kpoint 5">
       <r>   -7.0469    1.0000 </r>
       <r>   -6.5456    1.0000 </r>
       <r>   -6.4405    1.0000 </r>
       <r>   -5.9787    1.0000 </r>
       <r>   -5.5589    1.0000 </r>
       <r>   -5.4556    1.0000 </r>
       <r>   -5.1553    1.0000 </r>
       <r>   -5.0389    1.0000 </r>
       <r>   -4.9747    1.0000 </r>
       <r>   -4.9027    1.0000 </r>
       <r>   -4.6285    1.0000 </r>
       <r>   -4.5788    1.0000 </r>
       <r>   -4.4451    1.0000 </r>
       <r>   -4.3880    1.0000 </r>
       <r>   -4.1232    1.0000 </r>
       <r>   -3.9500    1.0000 </r>
       <r>   -3.6710    1.0000 </r>
       <r>   -3.5805    1.0000 </r>
       <r>   -3.5004    1.0000 </r>
       <r>   -3.3707    1.0000 </r>
       <r>   -3.3375    1.0000 </r>
       <r>   -3.2782    1.0000 </r>
       <r>   -3.1800    1.0000 </r>
       <r>   -3.0604    1.0000 </r>
       <r>   -2.8822    1.0000 </r>
       <r>   -2.8262    1.0000 </r>
       <r>   -2.8064    1.0000 </r>
       <r>   -2.6820    1.0000 </r>
       <r>   -2.6331    1.0000 </r>
       <r>   -2.3324    1.0000 </r>
       <r>   -2.2291    1.0000 </r>
       <r>   -2.1521    1.0000 </r>
       <r>   -0.2942    1.0000 </r>
       <r>   -0.2103    1.0000 </r>
       <r>    0.3120    1.0000 </r>
       <r>    0.4373    1.0000 </r>
       <r>    0.5175    1.0000 </r>
       <r>    0.5446    1.0000 </r>
       <r>    0.5777    1.0000 </r>
       <r>    0.6542    1.0000 </r>
       <r>    0.6855    1.0000 </r>
       <r>    0.7339    1.0000 </r>
       <r>    0.7981    1.0000 </r>
       <r>    0.8271    1.0000 </r>
       <r>    0.9241    1.0000 </r>
       <r>    1.0212    1.0000 </r>
       <r>    1.1340    1.0000 </r>
       <r>    1.2203    1.0000 </r>
       <r>    1.2855    1.0000 </r>
       <r>    1.3528    1.0000 </r>
       <r>    1.8662    1.0000 </r>
       <r>    1.9486    1.0000 </r>
       <r>    2.0050    1.0000 </r>
       <r>    2.0483    1.0000 </r>
       <r>    2.0939    1.0000 </r>
       <r>    2.1516    1.0000 </r>
       <r>    2.3975    1.0000 </r>
       <r>    2.4857    1.0000 </r>
       <r>    2.5767    1.0000 </r>
       <r>    2.7265    1.0000 </r>
       <r>    2.7540    1.0000 </r>
       <r>    3.1480    1.0000 </r>
       <r>    3.2193    1.0000 </r>
       <r>    3.2596    1.0000 </r>
       <r>    3.3451    1.0000 </r>
       <r>    3.4224    1.0000 </r>
       <r>    3.4596    1.0000 </r>
       <r>    3.5565    1.0000 </r>
       <r>    3.8367    1.0000 </r>
       <r>    3.8747    1.0000 </r>
       <r>    3.9542    1.0000 </r>
       <r>    3.9858    1.0000 </r>
       <r>    4.0334    1.0000 </r>
       <r>    4.0896    1.0000 </r>
       <r>    4.1321    1.0000 </r>
       <r>    4.2162    1.0000 </r>
       <r>    4.2747    1.0000 </r>
       <r>    4.4688    1.0000 </r>
       <r>    4.4941    1.0000 </r>
       <r>    4.6023    1.0000 </r>
       <r>    4.7030    1.0000 </r>
       <r>    4.8104    1.0000 </r>
       <r>    4.8520    1.0000 </r>
       <r>    4.8763    1.0000 </r>
       <r>    4.9162    1.0000 </r>
       <r>    4.9498    1.0000 </r>
       <r>    5.0218    1.0000 </r>
       <r>    5.0658    1.0000 </r>
       <r>    5.1590    1.0000 </r>
       <r>    5.2280    1.0000 </r>
       <r>    5.3397    1.0000 </r>
       <r>    5.3665    1.0000 </r>
       <r>    5.4453    1.0000 </r>
       <r>    5.5085    1.0000 </r>
       <r>    5.5176    1.0000 </r>
       <r>    5.5549    1.0000 </r>
       <r>    5.5888    1.0000 </r>
       <r>    5.6309    1.0000 </r>
       <r>    5.6700    1.0000 </r>
       <r>    5.7098    1.0000 </r>
       <r>    5.7554    1.0000 </r>
       <r>    5.8089    1.0000 </r>
       <r>    5.8885    1.0000 </r>
       <r>    5.9879    1.0000 </r>
       <r>    6.0521    1.0000 </r>
       <r>    6.0944    1.0000 </r>
       <r>    6.1499    1.0000 </r>
       <r>    6.2220    1.0000 </r>
       <r>    6.2957    1.0000 </r>
       <r>    6.3439    1.0000 </r>
       <r>    6.3574    1.0000 </r>
       <r>    6.4074    1.0000 </r>
       <r>    6.4910    1.0000 </r>
       <r>    6.5578    1.0000 </r>
       <r>    6.6015    1.0000 </r>
       <r>    6.6544    1.0000 </r>
       <r>    6.7470    1.0000 </r>
       <r>    6.7938    1.0000 </r>
       <r>    6.8394    1.0000 </r>
       <r>    6.9066    1.0000 </r>
       <r>    6.9468    1.0000 </r>
       <r>    7.0118    1.0000 </r>
       <r>    7.0844    1.0000 </r>
       <r>    7.3895    1.0000 </r>
       <r>    7.5784    1.0000 </r>
       <r>    7.5970    1.0000 </r>
       <r>    7.6334    1.0001 </r>
       <r>    7.9896    1.0351 </r>
       <r>   10.2463   -0.0000 </r>
       <r>   10.3668   -0.0000 </r>
       <r>   10.6129   -0.0000 </r>
       <r>   11.2305   -0.0000 </r>
       <r>   11.3047   -0.0000 </r>
       <r>   11.5612   -0.0000 </r>
       <r>   11.6722   -0.0000 </r>
       <r>   11.7936   -0.0000 </r>
       <r>   12.1583   -0.0000 </r>
       <r>   12.1968   -0.0000 </r>
       <r>   12.6198   -0.0000 </r>
       <r>   12.6625   -0.0000 </r>
       <r>   12.7543   -0.0000 </r>
       <r>   12.8778   -0.0000 </r>
       <r>   12.9337   -0.0000 </r>
       <r>   12.9911   -0.0000 </r>
       <r>   13.0639   -0.0000 </r>
       <r>   13.1016   -0.0000 </r>
       <r>   13.1254   -0.0000 </r>
       <r>   13.1994   -0.0000 </r>
       <r>   13.2758   -0.0000 </r>
       <r>   13.3425   -0.0000 </r>
       <r>   13.3994   -0.0000 </r>
       <r>   13.4905   -0.0000 </r>
       <r>   13.5525   -0.0000 </r>
       <r>   13.5911   -0.0000 </r>
       <r>   13.6638   -0.0000 </r>
       <r>   13.7276    0.0000 </r>
       <r>   13.7567    0.0000 </r>
       <r>   13.8098    0.0000 </r>
       <r>   13.8356    0.0000 </r>
       <r>   13.8951    0.0000 </r>
       <r>   13.9988    0.0000 </r>
       <r>   14.1081    0.0000 </r>
       <r>   14.1378    0.0000 </r>
       <r>   14.5802    0.0000 </r>
       <r>   14.6197    0.0000 </r>
       <r>   14.6704    0.0000 </r>
       <r>   14.7727    0.0000 </r>
       <r>   14.9404    0.0000 </r>
      </set>
      <set comment="kpoint 6">
       <r>   -7.0345    1.0000 </r>
       <r>   -6.5384    1.0000 </r>
       <r>   -6.4808    1.0000 </r>
       <r>   -5.9995    1.0000 </r>
       <r>   -5.5357    1.0000 </r>
       <r>   -5.4183    1.0000 </r>
       <r>   -5.1107    1.0000 </r>
       <r>   -5.0027    1.0000 </r>
       <r>   -4.9871    1.0000 </r>
       <r>   -4.9295    1.0000 </r>
       <r>   -4.6437    1.0000 </r>
       <r>   -4.5767    1.0000 </r>
       <r>   -4.4857    1.0000 </r>
       <r>   -4.4123    1.0000 </r>
       <r>   -4.1022    1.0000 </r>
       <r>   -4.0112    1.0000 </r>
       <r>   -3.6380    1.0000 </r>
       <r>   -3.5683    1.0000 </r>
       <r>   -3.4401    1.0000 </r>
       <r>   -3.3777    1.0000 </r>
       <r>   -3.3543    1.0000 </r>
       <r>   -3.3022    1.0000 </r>
       <r>   -3.2329    1.0000 </r>
       <r>   -3.0722    1.0000 </r>
       <r>   -2.8852    1.0000 </r>
       <r>   -2.8187    1.0000 </r>
       <r>   -2.7588    1.0000 </r>
       <r>   -2.6515    1.0000 </r>
       <r>   -2.5856    1.0000 </r>
       <r>   -2.3425    1.0000 </r>
       <r>   -2.2577    1.0000 </r>
       <r>   -2.1923    1.0000 </r>
       <r>   -0.2398    1.0000 </r>
       <r>   -0.1102    1.0000 </r>
       <r>    0.3096    1.0000 </r>
       <r>    0.4199    1.0000 </r>
       <r>    0.4570    1.0000 </r>
       <r>    0.4890    1.0000 </r>
       <r>    0.5435    1.0000 </r>
       <r>    0.6127    1.0000 </r>
       <r>    0.6919    1.0000 </r>
       <r>    0.7409    1.0000 </r>
       <r>    0.7851    1.0000 </r>
       <r>    0.8236    1.0000 </r>
       <r>    0.9062    1.0000 </r>
       <r>    0.9714    1.0000 </r>
       <r>    1.1445    1.0000 </r>
       <r>    1.2241    1.0000 </r>
       <r>    1.2696    1.0000 </r>
       <r>    1.3283    1.0000 </r>
       <r>    1.9125    1.0000 </r>
       <r>    2.0042    1.0000 </r>
       <r>    2.0403    1.0000 </r>
       <r>    2.1134    1.0000 </r>
       <r>    2.1358    1.0000 </r>
       <r>    2.2312    1.0000 </r>
       <r>    2.4084    1.0000 </r>
       <r>    2.5065    1.0000 </r>
       <r>    2.5916    1.0000 </r>
       <r>    2.6776    1.0000 </r>
       <r>    2.7532    1.0000 </r>
       <r>    3.0801    1.0000 </r>
       <r>    3.1299    1.0000 </r>
       <r>    3.2596    1.0000 </r>
       <r>    3.3220    1.0000 </r>
       <r>    3.3492    1.0000 </r>
       <r>    3.4685    1.0000 </r>
       <r>    3.5102    1.0000 </r>
       <r>    3.8461    1.0000 </r>
[...]
      </set>
     </set>
    </set>
   </array>
  </eigenvalues>
  <separator name="orbital magnetization" >
   <v name="MAGDIPOLOUT">      0.00000000      0.00000000      0.00000000</v>
  </separator>
  <dos>
   <i name="efermi">      8.22510303 </i>
   <total>
    <array>
     <dimension dim="1">gridpoints</dimension>
     <dimension dim="2">spin</dimension>
     <field>energy</field>
     <field>total</field>
     <field>integrated</field>
     <set>
      <set comment="spin 1">
       <r>    -9.3850     0.0000     0.0000 </r>
       <r>    -9.2959     0.0000     0.0000 </r>
       <r>    -9.2068     0.0000     0.0000 </r>
       <r>    -9.1177     0.0000     0.0000 </r>
       <r>    -9.0286    -0.0000    -0.0000 </r>
       <r>    -8.9396    -0.0000    -0.0000 </r>
       <r>    -8.8505    -0.0000    -0.0000 </r>
       <r>    -8.7614    -0.0000    -0.0000 </r>
       <r>    -8.6723    -0.0000    -0.0000 </r>
       <r>    -8.5832    -0.0000    -0.0000 </r>
       <r>    -8.4941    -0.0000    -0.0000 </r>
       <r>    -8.4050    -0.0000    -0.0000 </r>
       <r>    -8.3159    -0.0000    -0.0000 </r>
       <r>    -8.2268    -0.0000    -0.0000 </r>
       <r>    -8.1378    -0.0000    -0.0000 </r>
       <r>    -8.0487    -0.0000    -0.0000 </r>
       <r>    -7.9596    -0.0001    -0.0000 </r>
       <r>    -7.8705    -0.0012    -0.0001 </r>
       <r>    -7.7814    -0.0067    -0.0007 </r>
       <r>    -7.6923    -0.0225    -0.0027 </r>
       <r>    -7.6032    -0.0443    -0.0067 </r>
       <r>    -7.5141    -0.0305    -0.0094 </r>
       <r>    -7.4250     0.1264     0.0019 </r>
       <r>    -7.3360     0.6118     0.0564 </r>
       <r>    -7.2469     1.5680     0.1961 </r>
       <r>    -7.1578     2.8964     0.4541 </r>
       <r>    -7.0687     4.1792     0.8264 </r>
       <r>    -6.9796     4.7089     1.2459 </r>
       <r>    -6.8905     4.1075     1.6119 </r>
       <r>    -6.8014     2.9780     1.8772 </r>
       <r>    -6.7123     2.6248     2.1110 </r>
       <r>    -6.6232     4.1500     2.4807 </r>
       <r>    -6.5341     7.1850     3.1209 </r>
       <r>    -6.4451     9.6906     3.9842 </r>
       <r>    -6.3560     9.7649     4.8541 </r>
       <r>    -6.2669     7.3382     5.5079 </r>
       <r>    -6.1778     4.0629     5.8698 </r>
       <r>    -6.0887     2.4714     6.0900 </r>
       <r>    -5.9996     4.0026     6.4466 </r>
       <r>    -5.9105     7.4064     7.1064 </r>
       <r>    -5.8214    10.5571     8.0470 </r>
       <r>    -5.7323    12.1033     9.1252 </r>
       <r>    -5.6433    11.5367    10.1530 </r>
       <r>    -5.5542     9.8344    11.0292 </r>
       <r>    -5.4651     8.4935    11.7859 </r>
       <r>    -5.3760     8.0526    12.5033 </r>
       <r>    -5.2869     8.5072    13.2612 </r>
       <r>    -5.1978     9.8685    14.1403 </r>
       <r>    -5.1087    11.7654    15.1885 </r>
       <r>    -5.0196    12.9954    16.3463 </r>
       <r>    -4.9305    11.9483    17.4107 </r>
       <r>    -4.8414     8.4955    18.1676 </r>
       <r>    -4.7524     5.8795    18.6914 </r>
       <r>    -4.6633     7.7456    19.3814 </r>
       <r>    -4.5742    12.9513    20.5353 </r>
       <r>    -4.4851    17.1731    22.0652 </r>
       <r>    -4.3960    17.9109    23.6609 </r>
       <r>    -4.3069    15.8058    25.0690 </r>
       <r>    -4.2178    14.1630    26.3308 </r>
       <r>    -4.1287    15.9775    27.7542 </r>
       <r>    -4.0396    19.5195    29.4932 </r>
       <r>    -3.9506    20.3088    31.3025 </r>
       <r>    -3.8615    17.3151    32.8451 </r>
       <r>    -3.7724    13.8597    34.0798 </r>
       <r>    -3.6833    13.2225    35.2578 </r>
       <r>    -3.5942    15.4502    36.6342 </r>
       <r>    -3.5051    18.1982    38.2555 </r>
       <r>    -3.4160    19.9542    40.0332 </r>
       <r>    -3.3269    20.7889    41.8853 </r>
       <r>    -3.2378    20.2018    43.6851 </r>
       <r>    -3.1488    18.0880    45.2965 </r>
       <r>    -3.0597    16.6046    46.7758 </r>
       <r>    -2.9706    17.7214    48.3546 </r>
       <r>    -2.8815    20.7640    50.2044 </r>
       <r>    -2.7924    23.2363    52.2745 </r>
       <r>    -2.7033    23.3087    54.3511 </r>
       <r>    -2.6142    20.8715    56.2105 </r>
       <r>    -2.5251    16.5475    57.6847 </r>
       <r>    -2.4360    12.4364    58.7927 </r>
       <r>    -2.3469    11.6099    59.8270 </r>
       <r>    -2.2579    13.6299    61.0413 </r>
       <r>    -2.1688    14.2622    62.3119 </r>
       <r>    -2.0797    11.0591    63.2971 </r>
       <r>    -1.9906     5.9365    63.8260 </r>
       <r>    -1.9015     2.0035    64.0045 </r>
       <r>    -1.8124     0.2695    64.0285 </r>
       <r>    -1.7233    -0.1191    64.0179 </r>
       <r>    -1.6342    -0.1099    64.0081 </r>
       <r>    -1.5451    -0.0595    64.0028 </r>
       <r>    -1.4561    -0.0238    64.0007 </r>
       <r>    -1.3670    -0.0065    64.0001 </r>
       <r>    -1.2779    -0.0012    64.0000 </r>
       <r>    -1.1888    -0.0005    64.0000 </r>
       <r>    -1.0997    -0.0032    63.9997 </r>
       <r>    -1.0106    -0.0145    63.9984 </r>
       <r>    -0.9215    -0.0350    63.9953 </r>
       <r>    -0.8324    -0.0147    63.9940 </r>
       <r>    -0.7433     0.1456    64.0069 </r>
       <r>    -0.6543     0.3919    64.0418 </r>
       <r>    -0.5652     0.4661    64.0834 </r>
       <r>    -0.4761     0.5885    64.1358 </r>
       <r>    -0.3870     1.8961    64.3047 </r>
       <r>    -0.2979     5.0448    64.7542 </r>
       <r>    -0.2088     8.4667    65.5085 </r>
       <r>    -0.1197     9.5996    66.3637 </r>
       <r>    -0.0306     8.2348    67.0973 </r>
       <r>     0.0585     6.9530    67.7167 </r>
       <r>     0.1476     7.9556    68.4255 </r>
       <r>     0.2366    11.6766    69.4658 </r>
       <r>     0.3257    17.1587    70.9944 </r>
       <r>     0.4148    21.4862    72.9086 </r>
       <r>     0.5039    22.5506    74.9176 </r>
       <r>     0.5930    22.7953    76.9485 </r>
       <r>     0.6821    25.5099    79.2211 </r>
       <r>     0.7712    29.4914    81.8485 </r>
       <r>     0.8603    31.3745    84.6436 </r>
       <r>     0.9494    29.9243    87.3096 </r>
       <r>     1.0384    27.0374    89.7183 </r>
       <r>     1.1275    26.6523    92.0927 </r>
       <r>     1.2166    30.0461    94.7695 </r>
       <r>     1.3057    32.6793    97.6809 </r>
       <r>     1.3948    29.0270   100.2669 </r>
       <r>     1.4839    19.0510   101.9641 </r>
       <r>     1.5730     8.0063   102.6774 </r>
       <r>     1.6621     1.2646   102.7901 </r>
       <r>     1.7512     0.8472   102.8655 </r>
       <r>     1.8403     5.5755   103.3623 </r>
       <r>     1.9293    12.3228   104.4601 </r>
       <r>     2.0184    17.7955   106.0455 </r>
       <r>     2.1075    20.0984   107.8360 </r>
       <r>     2.1966    18.5769   109.4910 </r>
       <r>     2.2857    14.0469   110.7425 </r>
       <r>     2.3748     9.6959   111.6063 </r>
       <r>     2.4639     9.0296   112.4107 </r>
       <r>     2.5530    12.2546   113.5025 </r>
       <r>     2.6421    16.0371   114.9312 </r>
       <r>     2.7311    16.9258   116.4391 </r>
       <r>     2.8202    15.0411   117.7791 </r>
       <r>     2.9093    14.2183   119.0458 </r>
       <r>     2.9984    17.5943   120.6133 </r>
       <r>     3.0875    23.5457   122.7109 </r>
       <r>     3.1766    27.7022   125.1789 </r>
       <r>     3.2657    28.3524   127.7048 </r>
       <r>     3.3548    27.5729   130.1613 </r>
       <r>     3.4439    27.5176   132.6128 </r>
       <r>     3.5329    27.2129   135.0372 </r>
       <r>     3.6220    24.0185   137.1770 </r>
       <r>     3.7111    18.7294   138.8456 </r>
       <r>     3.8002    16.0802   140.2781 </r>
       <r>     3.8893    18.1829   141.8980 </r>
       <r>     3.9784    21.2316   143.7895 </r>
       <r>     4.0675    21.4099   145.6969 </r>
       <r>     4.1566    20.3420   147.5092 </r>
       <r>     4.2457    21.9333   149.4632 </r>
       <r>     4.3348    26.7142   151.8432 </r>
       <r>     4.4238    31.7137   154.6685 </r>
       <r>     4.5129    34.0656   157.7034 </r>
       <r>     4.6020    33.2670   160.6671 </r>
       <r>     4.6911    31.5619   163.4790 </r>
       <r>     4.7802    31.9705   166.3272 </r>
       <r>     4.8693    34.7861   169.4263 </r>
       <r>     4.9584    36.8644   172.7105 </r>
       <r>     5.0475    35.2680   175.8525 </r>
       <r>     5.1366    31.4412   178.6536 </r>
       <r>     5.2256    29.6258   181.2929 </r>
       <r>     5.3147    30.5619   184.0157 </r>
       <r>     5.4038    31.7786   186.8468 </r>
       <r>     5.4929    33.0228   189.7888 </r>
       <r>     5.5820    35.2262   192.9271 </r>
       <r>     5.6711    37.1761   196.2391 </r>
       <r>     5.7602    37.5322   199.5828 </r>
       <r>     5.8493    36.8410   202.8649 </r>
       <r>     5.9384    35.6484   206.0408 </r>
       <r>     6.0275    33.2853   209.0062 </r>
       <r>     6.1165    29.9032   211.6702 </r>
       <r>     6.2056    27.9426   214.1596 </r>
       <r>     6.2947    29.2152   216.7624 </r>
       <r>     6.3838    32.1232   219.6242 </r>
       <r>     6.4729    33.6095   222.6185 </r>
       <r>     6.5620    32.1615   225.4837 </r>
       <r>     6.6511    28.8405   228.0531 </r>
       <r>     6.7402    26.6188   230.4245 </r>
       <r>     6.8293    27.7135   232.8935 </r>
       <r>     6.9183    31.1359   235.6674 </r>
       <r>     7.0074    33.3330   238.6370 </r>
       <r>     7.0965    31.1390   241.4112 </r>
       <r>     7.1856    24.8730   243.6271 </r>
       <r>     7.2747    18.2577   245.2536 </r>
       <r>     7.3638    14.6227   246.5564 </r>
       <r>     7.4529    14.6567   247.8621 </r>
       <r>     7.5420    17.0657   249.3825 </r>
       <r>     7.6311    19.2343   251.0961 </r>
       <r>     7.7201    18.5221   252.7462 </r>
       <r>     7.8092    14.4035   254.0294 </r>
       <r>     7.8983     9.0632   254.8368 </r>
       <r>     7.9874     5.4407   255.3215 </r>
       <r>     8.0765     3.9529   255.6737 </r>
       <r>     8.1656     2.7332   255.9172 </r>
       <r>     8.2547     1.1505   256.0197 </r>
       <r>     8.3438     0.0877   256.0275 </r>
       <r>     8.4329    -0.1733   256.0121 </r>
       <r>     8.5220    -0.1007   256.0031 </r>
       <r>     8.6110    -0.0292   256.0005 </r>
       <r>     8.7001    -0.0070   255.9999 </r>
       <r>     8.7892    -0.0092   255.9990 </r>
       <r>     8.8783    -0.0208   255.9972 </r>
       <r>     8.9674    -0.0087   255.9964 </r>
       <r>     9.0565     0.0982   256.0052 </r>
       <r>     9.1456     0.3081   256.0326 </r>
       <r>     9.2347     0.4521   256.0729 </r>
       <r>     9.3238     0.3786   256.1066 </r>
       <r>     9.4128     0.3614   256.1388 </r>
       <r>     9.5019     0.9243   256.2212 </r>
       <r>     9.5910     1.8208   256.3834 </r>
       <r>     9.6801     1.9481   256.5569 </r>
       <r>     9.7692     1.0385   256.6495 </r>
       <r>     9.8583     0.1704   256.6646 </r>
       <r>     9.9474     0.1904   256.6816 </r>
       <r>    10.0365     0.9753   256.7685 </r>
       <r>    10.1256     2.4046   256.9827 </r>
       <r>    10.2147     4.8674   257.4163 </r>
       <r>    10.3037     7.5490   258.0889 </r>
       <r>    10.3928     8.5620   258.8517 </r>
       <r>    10.4819     8.6257   259.6201 </r>
       <r>    10.5710     9.4971   260.4662 </r>
       <r>    10.6601     9.3568   261.2998 </r>
       <r>    10.7492     6.6127   261.8889 </r>
       <r>    10.8383     3.5231   262.2028 </r>
       <r>    10.9274     1.6356   262.3485 </r>
       <r>    11.0165     0.5867   262.4008 </r>
       <r>    11.1055     1.1460   262.5029 </r>
       <r>    11.1946     4.0081   262.8599 </r>
       <r>    11.2837     7.4593   263.5245 </r>
       <r>    11.3728     9.3409   264.3567 </r>
       <r>    11.4619     9.9754   265.2454 </r>
       <r>    11.5510    11.1073   266.2349 </r>
       <r>    11.6401    13.1792   267.4090 </r>
       <r>    11.7292    15.1247   268.7565 </r>
       <r>    11.8183    16.0381   270.1853 </r>
       <r>    11.9073    16.2654   271.6344 </r>
       <r>    11.9964    16.8023   273.1313 </r>
       <r>    12.0855    17.2775   274.6705 </r>
       <r>    12.1746    15.4561   276.0475 </r>
       <r>    12.2637    10.9351   277.0217 </r>
       <r>    12.3528     7.6748   277.7054 </r>
       <r>    12.4419     9.0802   278.5144 </r>
       <r>    12.5310    13.9432   279.7566 </r>
       <r>    12.6201    19.6754   281.5095 </r>
       <r>    12.7092    24.8573   283.7240 </r>
       <r>    12.7982    28.5820   286.2703 </r>
       <r>    12.8873    30.1651   288.9577 </r>
       <r>    12.9764    29.6177   291.5964 </r>
       <r>    13.0655    28.2135   294.1099 </r>
       <r>    13.1546    26.9156   296.5078 </r>
       <r>    13.2437    24.4968   298.6902 </r>
       <r>    13.3328    20.8121   300.5443 </r>
       <r>    13.4219    19.9983   302.3259 </r>
       <r>    13.5110    24.7422   304.5302 </r>
       <r>    13.6000    30.6283   307.2589 </r>
       <r>    13.6891    32.1489   310.1230 </r>
       <r>    13.7782    29.9510   312.7913 </r>
       <r>    13.8673    28.3238   315.3147 </r>
       <r>    13.9564    28.9009   317.8894 </r>
       <r>    14.0455    29.4726   320.5151 </r>
       <r>    14.1346    27.3693   322.9534 </r>
       <r>    14.2237    21.2936   324.8505 </r>
       <r>    14.3128    12.5030   325.9643 </r>
       <r>    14.4018     5.7646   326.4779 </r>
       <r>    14.4909     6.1522   327.0260 </r>
       <r>    14.5800    13.6055   328.2381 </r>
       <r>    14.6691    21.2296   330.1294 </r>
       <r>    14.7582    22.0046   332.0898 </r>
       <r>    14.8473    16.4917   333.5590 </r>
       <r>    14.9364     9.5771   334.4123 </r>
       <r>    15.0255     4.1663   334.7834 </r>
       <r>    15.1146     1.5967   334.9257 </r>
       <r>    15.2037     2.2043   335.1220 </r>
       <r>    15.2927     3.8827   335.4680 </r>
       <r>    15.3818     3.8757   335.8132 </r>
       <r>    15.4709     2.0730   335.9979 </r>
       <r>    15.5600     0.4000   336.0335 </r>
       <r>    15.6491    -0.1790   336.0176 </r>
       <r>    15.7382    -0.1438   336.0048 </r>
       <r>    15.8273    -0.0448   336.0008 </r>
       <r>    15.9164    -0.0080   336.0001 </r>
       <r>    16.0055    -0.0009   336.0000 </r>
       <r>    16.0945    -0.0001   336.0000 </r>
       <r>    16.1836    -0.0000   336.0000 </r>
       <r>    16.2727    -0.0000   336.0000 </r>
       <r>    16.3618    -0.0000   336.0000 </r>
       <r>    16.4509    -0.0000   336.0000 </r>
       <r>    16.5400    -0.0000   336.0000 </r>
       <r>    16.6291    -0.0000   336.0000 </r>
       <r>    16.7182     0.0000   336.0000 </r>
       <r>    16.8073     0.0000   336.0000 </r>
       <r>    16.8964     0.0000   336.0000 </r>
       <r>    16.9854     0.0000   336.0000 </r>
       <r>    17.0745     0.0000   336.0000 </r>
       <r>    17.1636     0.0000   336.0000 </r>
       <r>    17.2527     0.0000   336.0000 </r>
       <r>    17.3418     0.0000   336.0000 </r>
      </set>
     </set>
    </array>
   </total>
  </dos>
 </calculation>
 <structure name="finalpos" >
  <crystal>
   <varray name="basis" >
    <v>       8.74331558       0.00000000       0.00000000 </v>
    <v>       0.00000000       8.74331558       0.00000000 </v>
    <v>       0.00000000       0.00000000       8.74331558 </v>
   </varray>
   <i name="volume">    668.38771987 </i>
   <varray name="rec_basis" >
    <v>       0.11437309       0.00000000       0.00000000 </v>
    <v>       0.00000000       0.11437309       0.00000000 </v>
    <v>       0.00000000       0.00000000       0.11437309 </v>
   </varray>
  </crystal>
  <varray name="positions" >
   <v>       0.13143845       0.12609170       0.13203395 </v>
   <v>       0.12023755       0.37076801       0.37956686 </v>
   <v>       0.37571818       0.11556405       0.38377046 </v>
   <v>       0.38431814       0.37284875       0.13416258 </v>
   <v>       0.11973634       0.13283857       0.62641857 </v>
   <v>       0.12207858       0.37932264       0.88248383 </v>
   <v>       0.37805066       0.12075912       0.87527493 </v>
   <v>       0.37095791       0.37770820       0.62987382 </v>
   <v>       0.12884541       0.62898735       0.13027272 </v>
   <v>       0.12714738       0.86839574       0.37762086 </v>
   <v>       0.37597139       0.61085551       0.36904205 </v>
   <v>       0.37719299       0.87634897       0.12697064 </v>
   <v>       0.12360404       0.62672396       0.62568347 </v>
   <v>       0.12647575       0.87505672       0.87316267 </v>
   <v>       0.38004977       0.61765870       0.87963211 </v>
   <v>       0.37024654       0.87545181       0.62391378 </v>
   <v>       0.62703667       0.12794743       0.12519473 </v>
   <v>       0.62321731       0.38073742       0.37534749 </v>
   <v>       0.87242784       0.12128437       0.38154165 </v>
   <v>       0.87751330       0.37562190       0.12535476 </v>
   <v>       0.62486824       0.12418491       0.62605547 </v>
   <v>       0.61841371       0.37472056       0.87381669 </v>
   <v>       0.87164608       0.12446905       0.86992571 </v>
   <v>       0.86697083       0.37322515       0.62164797 </v>
   <v>       0.62536726       0.61399899       0.12321880 </v>
   <v>       0.62772204       0.87593572       0.37432680 </v>
   <v>       0.87638190       0.63372531       0.36899988 </v>
   <v>       0.87479886       0.87891769       0.12100328 </v>
   <v>       0.62638607       0.62801714       0.62472928 </v>
   <v>       0.63139090       0.87023078       0.88113459 </v>
   <v>       0.87887006       0.62435355       0.87447269 </v>
   <v>       0.86854463       0.87742846       0.62742428 </v>
   <v>       0.00123708       0.00760339       0.00622379 </v>
   <v>       0.01311662       0.24782878       0.24942214 </v>
   <v>       0.25149190       0.00111031       0.25476917 </v>
   <v>       0.25121434       0.24548349       0.00200955 </v>
   <v>       0.00617426       0.99911676       0.50799560 </v>
   <v>       0.00523822       0.24752265       0.74723136 </v>
   <v>       0.25255927       0.00342532       0.75129941 </v>
   <v>       0.24642411       0.25395089       0.49900161 </v>
   <v>       0.99640878       0.50455106       0.00130624 </v>
   <v>       0.99745663       0.74432460       0.24327461 </v>
   <v>       0.24325719       0.50180898       0.25800718 </v>
   <v>       0.24753251       0.74695791       0.00073813 </v>
   <v>       0.00787930       0.50613365       0.50022302 </v>
   <v>       0.00206214       0.74276298       0.74691741 </v>
   <v>       0.24942777       0.49158729       0.74909832 </v>
   <v>       0.25303151       0.74235458       0.49698502 </v>
   <v>       0.50136235       0.99661445       0.99130194 </v>
   <v>       0.49882295       0.24906463       0.24811373 </v>
   <v>       0.74934987       0.00392245       0.24738788 </v>
   <v>       0.75764576       0.24159661       0.00609448 </v>
   <v>       0.50647965       0.00414715       0.50272860 </v>
   <v>       0.49986187       0.25165132       0.74133956 </v>
   <v>       0.75165444       0.00483615       0.74717057 </v>
   <v>       0.75309675       0.25437693       0.49976151 </v>
   <v>       0.49245292       0.50736620       0.99770351 </v>
   <v>       0.50630536       0.75357528       0.24290558 </v>
   <v>       0.75042518       0.49673705       0.25175461 </v>
   <v>       0.75844171       0.74385642       0.00175170 </v>
   <v>       0.50183612       0.50141540       0.49507623 </v>
   <v>       0.50517468       0.74383768       0.74838094 </v>
   <v>       0.74497969       0.50072712       0.75464483 </v>
   <v>       0.75838719       0.76108090       0.50349954 </v>
  </varray>
 </structure>
</modeling>
