unknown system                          
           1
     8.743316    0.000000    0.000000
     0.000000    8.743316    0.000000
     0.000000    0.000000    8.743316
   C    Si
    32    32
Direct configuration=     1
   0.13143845  0.12609170  0.13203395
   0.12023755  0.37076801  0.37956686
   0.37571818  0.11556405  0.38377046
   0.38431814  0.37284875  0.13416258
   0.11973634  0.13283857  0.62641857
   0.12207858  0.37932264  0.88248383
   0.37805066  0.12075912  0.87527493
   0.37095791  0.37770820  0.62987382
   0.12884541  0.62898735  0.13027272
   0.12714738  0.86839574  0.37762086
   0.37597139  0.61085551  0.36904205
   0.37719299  0.87634897  0.12697064
   0.12360404  0.62672396  0.62568347
   0.12647575  0.87505672  0.87316267
   0.38004977  0.61765870  0.87963211
   0.37024654  0.87545181  0.62391378
   0.62703667  0.12794743  0.12519473
   0.62321731  0.38073742  0.37534749
   0.87242784  0.12128437  0.38154165
   0.87751330  0.37562190  0.12535476
   0.62486824  0.12418491  0.62605547
   0.61841371  0.37472056  0.87381669
   0.87164608  0.12446905  0.86992571
   0.86697083  0.37322515  0.62164797
   0.62536726  0.61399899  0.12321880
   0.62772204  0.87593572  0.37432680
   0.87638190  0.63372531  0.36899988
   0.87479886  0.87891769  0.12100328
   0.62638607  0.62801714  0.62472928
   0.63139090  0.87023078  0.88113459
   0.87887006  0.62435355  0.87447269
   0.86854463  0.87742846  0.62742428
   0.00123708  0.00760339  0.00622379
   0.01311662  0.24782878  0.24942214
   0.25149190  0.00111031  0.25476917
   0.25121434  0.24548349  0.00200955
   0.00617426  0.99911676  0.50799560
   0.00523822  0.24752265  0.74723136
   0.25255927  0.00342532  0.75129941
   0.24642411  0.25395089  0.49900161
   0.99640878  0.50455106  0.00130624
   0.99745663  0.74432460  0.24327461
   0.24325719  0.50180898  0.25800718
   0.24753251  0.74695791  0.00073813
   0.00787930  0.50613365  0.50022302
   0.00206214  0.74276298  0.74691741
   0.24942777  0.49158729  0.74909832
   0.25303151  0.74235458  0.49698502
   0.50136235  0.99661445  0.99130194
   0.49882295  0.24906463  0.24811373
   0.74934987  0.00392245  0.24738788
   0.75764576  0.24159661  0.00609448
   0.50647965  0.00414715  0.50272860
   0.49986187  0.25165132  0.74133956
   0.75165444  0.00483615  0.74717057
   0.75309675  0.25437693  0.49976151
   0.49245292  0.50736620  0.99770351
   0.50630536  0.75357528  0.24290558
   0.75042518  0.49673705  0.25175461
   0.75844171  0.74385642  0.00175170
   0.50183612  0.50141540  0.49507623
   0.50517468  0.74383768  0.74838094
   0.74497969  0.50072712  0.75464483
   0.75838719  0.76108090  0.50349954
