       N       E                     dE             d eps       ncg     rms          rms(c)
DAV:   1     0.668941387909E+03    0.66894E+03   -0.99555E+04  4704   0.111E+03
DAV:   2    -0.462605175411E+03   -0.11315E+04   -0.10719E+04  5816   0.221E+02
DAV:   3    -0.537755356088E+03   -0.75150E+02   -0.74457E+02  5672   0.561E+01
DAV:   4    -0.539415193815E+03   -0.16598E+01   -0.16523E+01  5648   0.905E+00
DAV:   5    -0.539464409670E+03   -0.49216E-01   -0.49129E-01  5568   0.146E+00    0.492E+01
DAV:   6    -0.482802941262E+03    0.56661E+02   -0.19020E+02  5328   0.234E+01    0.218E+01
DAV:   7    -0.481449615797E+03    0.13533E+01   -0.15695E+01  5856   0.702E+00    0.974E+00
DAV:   8    -0.481221206477E+03    0.22841E+00   -0.10099E+00  5432   0.196E+00    0.262E+00
DAV:   9    -0.481204926209E+03    0.16280E-01   -0.14033E-01  5464   0.809E-01    0.432E-01
DAV:  10    -0.481207996204E+03   -0.30700E-02   -0.12566E-02  5696   0.247E-01    0.235E-01
DAV:  11    -0.481209002133E+03   -0.10059E-02   -0.19539E-03  5160   0.112E-01    0.776E-02
DAV:  12    -0.481209006694E+03   -0.45611E-05   -0.26111E-04  6160   0.401E-02    0.405E-02
DAV:  13    -0.481209017971E+03   -0.11277E-04   -0.85160E-05  5184   0.218E-02    0.108E-02
DAV:  14    -0.481209024439E+03   -0.64676E-05   -0.68907E-06  5480   0.544E-03    0.537E-03
DAV:  15    -0.481209026356E+03   -0.19175E-05   -0.17259E-06  5656   0.301E-03    0.405E-03
DAV:  16    -0.481209026057E+03    0.29880E-06   -0.18856E-07  5800   0.116E-03    0.152E-03
DAV:  17    -0.481209026247E+03   -0.18989E-06   -0.90236E-08  5216   0.645E-04    0.781E-04
DAV:  18    -0.481209026243E+03    0.45002E-08   -0.77350E-09  2776   0.239E-04
   1 F= -.48120903E+03 E0= -.48121221E+03  d E =0.955075E-02
