<?xml version="1.0" encoding="ISO-8859-1"?>
<modeling>
 <generator>
  <i name="program" type="string">vasp </i>
  <i name="version" type="string">6.2.1  </i>
  <i name="subversion" type="string">16May21 (build Jun 06 2020 10:27:25) complex                          parallel </i>
  <i name="platform" type="string">LinuxIFC </i>
  <i name="date" type="string">2024 01 25 </i>
  <i name="time" type="string">17:05:05 </i>
 </generator>
 <incar>
  <i type="int" name="NELM">    60</i>
  <i type="int" name="IBRION">     1</i>
  <i name="EDIFF">      0.00000001</i>
  <i type="int" name="NSW">     0</i>
  <i type="int" name="ISIF">     3</i>
  <i type="int" name="ISYM">     0</i>
  <i type="logical" name="LWAVE"> F  </i>
  <i type="logical" name="LCHARG"> F  </i>
  <i type="string" name="GGA">PE</i>
 </incar>
 <primitive_cell>
  <structure name="primitive_cell" >
   <crystal>
    <varray name="basis" >
     <v>       8.74331558       0.00000000       0.00000000 </v>
     <v>       0.00000000       8.74331558       0.00000000 </v>
     <v>       0.00000000       0.00000000       8.74331558 </v>
    </varray>
    <i name="volume">    668.38771987 </i>
    <varray name="rec_basis" >
     <v>       0.11437309       0.00000000       0.00000000 </v>
     <v>       0.00000000       0.11437309       0.00000000 </v>
     <v>       0.00000000       0.00000000       0.11437309 </v>
    </varray>
   </crystal>
   <varray name="positions" >
    <v>       0.12604515       0.12140744       0.12607338 </v>
    <v>       0.12587171       0.37423485       0.37423827 </v>
    <v>       0.37718488       0.12210655       0.37818455 </v>
    <v>       0.37867848       0.37445249       0.12792779 </v>
    <v>       0.12481059       0.12390675       0.62587416 </v>
    <v>       0.12246695       0.37623345       0.87776895 </v>
    <v>       0.37405085       0.12524694       0.87257832 </v>
    <v>       0.37372115       0.37369231       0.62202686 </v>
    <v>       0.12385418       0.62059623       0.12365093 </v>
    <v>       0.12309843       0.87843529       0.37746405 </v>
    <v>       0.37595787       0.62302057       0.37239400 </v>
    <v>       0.37417627       0.87413196       0.12336687 </v>
    <v>       0.12444925       0.62073880       0.62341108 </v>
    <v>       0.12519661       0.87714225       0.87148504 </v>
    <v>       0.37509284       0.62434430       0.87352731 </v>
    <v>       0.38097343       0.87456084       0.62422759 </v>
    <v>       0.62208558       0.12554567       0.12397212 </v>
    <v>       0.62843960       0.37936310       0.37393340 </v>
    <v>       0.88001265       0.12224849       0.37430774 </v>
    <v>       0.87416511       0.37177894       0.12584657 </v>
    <v>       0.62348831       0.12324550       0.62806899 </v>
    <v>       0.62910392       0.37514877       0.87676108 </v>
    <v>       0.87423983       0.12759551       0.87472028 </v>
    <v>       0.87657428       0.37044992       0.62626301 </v>
    <v>       0.62502461       0.62344755       0.12315027 </v>
    <v>       0.62829077       0.87668783       0.37924987 </v>
    <v>       0.87441679       0.62270982       0.38003093 </v>
    <v>       0.87840876       0.87101188       0.12136888 </v>
    <v>       0.63025445       0.62659843       0.62287599 </v>
    <v>       0.62715369       0.87352893       0.87574997 </v>
    <v>       0.87222916       0.62312076       0.87491568 </v>
    <v>       0.87447556       0.87184440       0.62472119 </v>
    <v>       0.00158751       0.00127786       0.99999961 </v>
    <v>       0.00103772       0.25043447       0.24908727 </v>
    <v>       0.24870414       0.00552071       0.24908645 </v>
    <v>       0.25078450       0.24999344       0.99789960 </v>
    <v>       0.99715128       0.99880983       0.49874755 </v>
    <v>       0.99860694       0.24778004       0.74697480 </v>
    <v>       0.25673809       0.99919555       0.74916444 </v>
    <v>       0.24897745       0.24622763       0.49978341 </v>
    <v>       0.00175555       0.50318141       0.00133779 </v>
    <v>       0.99701524       0.75098487       0.25183340 </v>
    <v>       0.25480332       0.50195820       0.24467228 </v>
    <v>       0.25036722       0.75037431       0.00041586 </v>
    <v>       0.99665541       0.49704556       0.50160742 </v>
    <v>       0.00000638       0.75298504       0.75040159 </v>
    <v>       0.25045367       0.49880507       0.75083749 </v>
    <v>       0.24772621       0.75050285       0.50355057 </v>
    <v>       0.49878120       0.99812707       0.00264039 </v>
    <v>       0.50221903       0.24716370       0.25151267 </v>
    <v>       0.75026232       0.00093988       0.24716704 </v>
    <v>       0.75155692       0.25092772       0.00027382 </v>
    <v>       0.49855405       0.99919666       0.50209269 </v>
    <v>       0.50087961       0.24755824       0.75234538 </v>
    <v>       0.74917323       0.00024296       0.74687482 </v>
    <v>       0.75059996       0.24824304       0.50067678 </v>
    <v>       0.50016221       0.49784413       0.00192973 </v>
    <v>       0.49921031       0.74822097       0.25030662 </v>
    <v>       0.75073899       0.49899161       0.24982179 </v>
    <v>       0.75254176       0.74776813       0.00124491 </v>
    <v>       0.49879473       0.49884635       0.50072099 </v>
    <v>       0.49965419       0.75016686       0.75058488 </v>
    <v>       0.74968354       0.49929645       0.74755631 </v>
    <v>       0.75406463       0.75157367       0.49488819 </v>
   </varray>
  </structure>
  <varray name="primitive_index" >
   <v type="int" >        1 </v>
   <v type="int" >        2 </v>
   <v type="int" >        3 </v>
   <v type="int" >        4 </v>
   <v type="int" >        5 </v>
   <v type="int" >        6 </v>
   <v type="int" >        7 </v>
   <v type="int" >        8 </v>
   <v type="int" >        9 </v>
   <v type="int" >       10 </v>
   <v type="int" >       11 </v>
   <v type="int" >       12 </v>
   <v type="int" >       13 </v>
   <v type="int" >       14 </v>
   <v type="int" >       15 </v>
   <v type="int" >       16 </v>
   <v type="int" >       17 </v>
   <v type="int" >       18 </v>
   <v type="int" >       19 </v>
   <v type="int" >       20 </v>
   <v type="int" >       21 </v>
   <v type="int" >       22 </v>
   <v type="int" >       23 </v>
   <v type="int" >       24 </v>
   <v type="int" >       25 </v>
   <v type="int" >       26 </v>
   <v type="int" >       27 </v>
   <v type="int" >       28 </v>
   <v type="int" >       29 </v>
   <v type="int" >       30 </v>
   <v type="int" >       31 </v>
   <v type="int" >       32 </v>
   <v type="int" >       33 </v>
   <v type="int" >       34 </v>
   <v type="int" >       35 </v>
   <v type="int" >       36 </v>
   <v type="int" >       37 </v>
   <v type="int" >       38 </v>
   <v type="int" >       39 </v>
   <v type="int" >       40 </v>
   <v type="int" >       41 </v>
   <v type="int" >       42 </v>
   <v type="int" >       43 </v>
   <v type="int" >       44 </v>
   <v type="int" >       45 </v>
   <v type="int" >       46 </v>
   <v type="int" >       47 </v>
   <v type="int" >       48 </v>
   <v type="int" >       49 </v>
   <v type="int" >       50 </v>
   <v type="int" >       51 </v>
   <v type="int" >       52 </v>
   <v type="int" >       53 </v>
   <v type="int" >       54 </v>
   <v type="int" >       55 </v>
   <v type="int" >       56 </v>
   <v type="int" >       57 </v>
   <v type="int" >       58 </v>
   <v type="int" >       59 </v>
   <v type="int" >       60 </v>
   <v type="int" >       61 </v>
   <v type="int" >       62 </v>
   <v type="int" >       63 </v>
   <v type="int" >       64 </v>
  </varray>
 </primitive_cell>
 <kpoints>
  <generation param="Monkhorst-Pack">
   <v type="int" name="divisions">       3        3        3 </v>
   <v name="usershift">      0.00000000       0.00000000       0.00000000 </v>
   <v name="genvec1">      0.33333333       0.00000000       0.00000000 </v>
   <v name="genvec2">      0.00000000       0.33333333       0.00000000 </v>
   <v name="genvec3">      0.00000000       0.00000000       0.33333333 </v>
   <v name="shift">      0.00000000       0.00000000       0.00000000 </v>
  </generation>
  <varray name="kpointlist" >
   <v>       0.00000000       0.00000000       0.00000000 </v>
   <v>       0.33333333       0.00000000       0.00000000 </v>
   <v>       0.00000000       0.33333333       0.00000000 </v>
   <v>       0.00000000       0.00000000       0.33333333 </v>
   <v>       0.33333333       0.33333333       0.00000000 </v>
   <v>       0.00000000       0.33333333       0.33333333 </v>
   <v>       0.33333333       0.00000000       0.33333333 </v>
   <v>      -0.33333333       0.33333333       0.00000000 </v>
   <v>      -0.33333333       0.00000000       0.33333333 </v>
   <v>       0.00000000      -0.33333333       0.33333333 </v>
   <v>       0.33333333       0.33333333       0.33333333 </v>
   <v>      -0.33333333       0.33333333       0.33333333 </v>
   <v>      -0.33333333      -0.33333333       0.33333333 </v>
   <v>       0.33333333      -0.33333333       0.33333333 </v>
  </varray>
  <varray name="weights" >
   <v>       0.03703704 </v>
   <v>       0.07407407 </v>
   <v>       0.07407407 </v>
   <v>       0.07407407 </v>
   <v>       0.07407407 </v>
   <v>       0.07407407 </v>
   <v>       0.07407407 </v>
   <v>       0.07407407 </v>
   <v>       0.07407407 </v>
   <v>       0.07407407 </v>
   <v>       0.07407407 </v>
   <v>       0.07407407 </v>
   <v>       0.07407407 </v>
   <v>       0.07407407 </v>
  </varray>
 </kpoints>
 <parameters>
  <separator name="general" >
   <i type="string" name="SYSTEM">unknown system</i>
   <i type="logical" name="LCOMPAT"> F  </i>
  </separator>
  <separator name="electronic" >
   <i type="string" name="PREC">normal</i>
   <i name="ENMAX">    400.00000000</i>
   <i name="ENAUG">    644.87300000</i>
   <i name="EDIFF">      0.00000001</i>
   <i type="int" name="IALGO">    38</i>
   <i type="int" name="IWAVPR">    10</i>
   <i type="int" name="NBANDS">   168</i>
   <i type="int" name="NBANDSLOW">    -1</i>
   <i type="int" name="NBANDSHIGH">    -1</i>
   <i name="NELECT">    256.00000000</i>
   <i type="int" name="TURBO">     0</i>
   <i type="int" name="IRESTART">     0</i>
   <i type="int" name="NREBOOT">     0</i>
   <i type="int" name="NMIN">     0</i>
   <i name="EREF">      0.00000000</i>
   <separator name="electronic smearing" >
    <i type="int" name="ISMEAR">     1</i>
    <i name="SIGMA">      0.20000000</i>
    <i name="KSPACING">      0.50000000</i>
    <i type="logical" name="KGAMMA"> T  </i>
    <i type="logical" name="KBLOWUP"> T  </i>
   </separator>
   <separator name="electronic projectors" >
    <i type="logical" name="LREAL"> F  </i>
    <v name="ROPT">      0.00000000      0.00000000</v>
    <i type="int" name="LMAXPAW">  -100</i>
    <i type="int" name="LMAXMIX">     2</i>
    <i type="logical" name="NLSPLINE"> F  </i>
   </separator>
   <separator name="electronic startup" >
    <i type="int" name="ISTART">     0</i>
    <i type="int" name="ICHARG">     2</i>
    <i type="int" name="INIWAV">     1</i>
   </separator>
   <separator name="electronic spin" >
    <i type="int" name="ISPIN">     1</i>
    <i type="logical" name="LNONCOLLINEAR"> F  </i>
    <v name="MAGMOM">      1.00000000      1.00000000      1.00000000      1.00000000      1.00000000      1.00000000      1.00000000      1.00000000      1.00000000      1.00000000      1.00000000      1.00000000      1.00000000      1.00000000      1.00000000      1.00000000      1.00000000      1.00000000      1.00000000      1.00000000
      1.00000000      1.00000000      1.00000000      1.00000000      1.00000000      1.00000000      1.00000000      1.00000000      1.00000000      1.00000000      1.00000000      1.00000000      1.00000000      1.00000000      1.00000000      1.00000000      1.00000000      1.00000000      1.00000000      1.00000000
      1.00000000      1.00000000      1.00000000      1.00000000      1.00000000      1.00000000      1.00000000      1.00000000      1.00000000      1.00000000      1.00000000      1.00000000      1.00000000      1.00000000      1.00000000      1.00000000      1.00000000      1.00000000      1.00000000      1.00000000
      1.00000000      1.00000000      1.00000000      1.00000000</v>
    <i name="NUPDOWN">     -1.00000000</i>
    <i type="logical" name="LSORBIT"> F  </i>
    <v name="SAXIS">      0.00000000      0.00000000      1.00000000</v>
    <i type="logical" name="LSPIRAL"> F  </i>
    <v name="QSPIRAL">      0.00000000      0.00000000      0.00000000</v>
    <i type="logical" name="LZEROZ"> F  </i>
   </separator>
   <separator name="electronic exchange-correlation" >
    <i type="logical" name="LASPH"> F  </i>
    <i type="logical" name="LMETAGGA"> F  </i>
   </separator>
   <separator name="electronic convergence" >
    <i type="int" name="NELM">    60</i>
    <i type="int" name="NELMDL">    -5</i>
    <i type="int" name="NELMIN">     2</i>
    <i name="ENINI">    400.00000000</i>
    <separator name="electronic convergence detail" >
     <i type="logical" name="LDIAG"> T  </i>
     <i type="logical" name="LSUBROT"> F  </i>
     <i name="WEIMIN">      0.00000000</i>
     <i name="EBREAK">      0.00000000</i>
     <i name="DEPER">      0.30000000</i>
     <i type="int" name="NRMM">     4</i>
     <i name="TIME">      0.40000000</i>
    </separator>
   </separator>
   <separator name="electronic mixer" >
    <i name="AMIX">      0.40000000</i>
    <i name="BMIX">      1.00000000</i>
    <i name="AMIN">      0.10000000</i>
    <i name="AMIX_MAG">      1.60000000</i>
    <i name="BMIX_MAG">      1.00000000</i>
    <separator name="electronic mixer details" >
     <i type="int" name="IMIX">     4</i>
     <i type="logical" name="MIXFIRST"> F  </i>
     <i type="int" name="MAXMIX">   -45</i>
     <i name="WC">    100.00000000</i>
     <i type="int" name="INIMIX">     1</i>
     <i type="int" name="MIXPRE">     1</i>
     <i type="int" name="MREMOVE">     5</i>
    </separator>
   </separator>
   <separator name="electronic dipolcorrection" >
    <i type="logical" name="LDIPOL"> F  </i>
    <i type="logical" name="LMONO"> F  </i>
    <i type="int" name="IDIPOL">     0</i>
    <i name="EPSILON">      1.00000000</i>
    <v name="DIPOL">   -100.00000000   -100.00000000   -100.00000000</v>
    <i name="EFIELD">      0.00000000</i>
   </separator>
  </separator>
  <separator name="grids" >
   <i type="int" name="NGX">    48</i>
   <i type="int" name="NGY">    48</i>
   <i type="int" name="NGZ">    48</i>
   <i type="int" name="NGXF">    96</i>
   <i type="int" name="NGYF">    96</i>
   <i type="int" name="NGZF">    96</i>
   <i type="logical" name="ADDGRID"> F  </i>
  </separator>
  <separator name="ionic" >
   <i type="int" name="NSW">     0</i>
   <i type="int" name="IBRION">    -1</i>
   <i type="int" name="MDALGO">     0</i>
   <i type="int" name="ISIF">     3</i>
   <i name="PSTRESS">      0.00000000</i>
   <i name="EDIFFG">      0.00000010</i>
   <i type="int" name="NFREE">     0</i>
   <i name="POTIM">      0.50000000</i>
   <i name="SMASS">     -3.00000000</i>
   <i name="SCALEE">      1.00000000</i>
  </separator>
  <separator name="ionic md" >
   <i name="TEBEG">      0.00010000</i>
   <i name="TEEND">      0.00010000</i>
   <i type="int" name="NBLOCK">     1</i>
   <i type="int" name="KBLOCK">     1</i>
   <i type="int" name="NPACO">   256</i>
   <i name="APACO">     16.00000000</i>
  </separator>
  <separator name="symmetry" >
   <i type="int" name="ISYM">     0</i>
   <i name="SYMPREC">      0.00001000</i>
  </separator>
  <separator name="dos" >
   <i type="int" name="LORBIT">     0</i>
   <v name="RWIGS">     -1.00000000     -1.00000000</v>
   <i type="int" name="NEDOS">   301</i>
   <i name="EMIN">     10.00000000</i>
   <i name="EMAX">    -10.00000000</i>
   <i name="EFERMI">      0.00000000</i>
  </separator>
  <separator name="writing" >
   <i type="int" name="NWRITE">     2</i>
   <i type="logical" name="LWAVE"> F  </i>
   <i type="logical" name="LDOWNSAMPLE"> F  </i>
   <i type="logical" name="LCHARG"> F  </i>
   <i type="logical" name="LPARD"> F  </i>
   <i type="logical" name="LVTOT"> F  </i>
   <i type="logical" name="LVHAR"> F  </i>
   <i type="logical" name="LELF"> F  </i>
   <i type="logical" name="LOPTICS"> F  </i>
   <v name="STM">      0.00000000      0.00000000      0.00000000      0.00000000      0.00000000      0.00000000      0.00000000</v>
  </separator>
  <separator name="performance" >
   <i type="int" name="NPAR">     8</i>
   <i type="int" name="NSIM">     4</i>
   <i type="int" name="NBLK">    -1</i>
   <i type="logical" name="LPLANE"> T  </i>
   <i type="logical" name="LSCALAPACK"> T  </i>
   <i type="logical" name="LSCAAWARE"> F  </i>
   <i type="logical" name="LSCALU"> F  </i>
   <i type="logical" name="LASYNC"> F  </i>
   <i type="logical" name="LORBITALREAL"> F  </i>
  </separator>
  <separator name="miscellaneous" >
   <i type="int" name="IDIOT">     3</i>
   <i type="int" name="PHON_NSTRUCT">    -1</i>
   <i type="logical" name="LMUSIC"> F  </i>
   <v name="POMASS">     12.01100000     28.08500000</v>
   <v name="DARWINR">      0.00000000      0.00000000</v>
   <v name="DARWINV">      1.00000000      1.00000000</v>
   <i type="logical" name="LCORR"> T  </i>
  </separator>
  <i type="logical" name="GGA_COMPAT"> T  </i>
  <i type="logical" name="LBERRY"> F  </i>
  <i type="int" name="ICORELEVEL">     0</i>
  <i type="logical" name="LDAU"> F  </i>
  <i type="int" name="I_CONSTRAINED_M">     0</i>
  <separator name="electronic exchange-correlation" >
   <i type="string" name="GGA">PE</i>
   <i type="int" name="VOSKOWN">     0</i>
   <i type="logical" name="LHFCALC"> F  </i>
   <i type="string" name="PRECFOCK"></i>
   <i type="logical" name="LSYMGRAD"> F  </i>
   <i type="logical" name="LHFONE"> F  </i>
   <i type="logical" name="LRHFCALC"> F  </i>
   <i type="logical" name="LTHOMAS"> F  </i>
   <i type="logical" name="LMODELHF"> F  </i>
   <i type="logical" name="LFOCKACE"> F  </i>
   <i name="ENCUT4O">     -1.00000000</i>
   <i type="int" name="EXXOEP">     0</i>
   <i type="int" name="FOURORBIT">     0</i>
   <i name="AEXX">      0.00000000</i>
   <i name="HFALPHA">      0.00000000</i>
   <i name="MCALPHA">      0.00000000</i>
   <i name="ALDAX">      1.00000000</i>
   <i name="AGGAX">      1.00000000</i>
   <i name="ALDAC">      1.00000000</i>
   <i name="AGGAC">      1.00000000</i>
   <i type="int" name="NKREDX">     1</i>
   <i type="int" name="NKREDY">     1</i>
   <i type="int" name="NKREDZ">     1</i>
   <i type="logical" name="SHIFTRED"> F  </i>
   <i type="logical" name="ODDONLY"> F  </i>
   <i type="logical" name="EVENONLY"> F  </i>
   <i type="int" name="LMAXFOCK">     0</i>
   <i type="int" name="NMAXFOCKAE">     0</i>
   <i type="logical" name="LFOCKAEDFT"> F  </i>
   <i name="HFSCREEN">      0.00000000</i>
   <i name="HFSCREENC">      0.00000000</i>
   <i type="int" name="NBANDSGWLOW">     0</i>
  </separator>
  <separator name="vdW DFT" >
   <i type="logical" name="LUSE_VDW"> F  </i>
   <i name="Zab_VDW">     -0.84910000</i>
   <i name="PARAM1">      0.12340000</i>
   <i name="PARAM2">      1.00000000</i>
   <i name="PARAM3">      0.00000000</i>
  </separator>
  <separator name="model GW" >
   <i type="int" name="MODEL_GW">     0</i>
   <i name="MODEL_EPS0">      6.26613487</i>
   <i name="MODEL_ALPHA">      1.00000000</i>
  </separator>
  <separator name="linear response parameters" >
   <i type="logical" name="LEPSILON"> F  </i>
   <i type="logical" name="LRPA"> F  </i>
   <i type="logical" name="LNABLA"> F  </i>
   <i type="logical" name="LVEL"> F  </i>
   <i type="int" name="KINTER">     0</i>
   <i name="CSHIFT">      0.10000000</i>
   <i name="OMEGAMAX">     -1.00000000</i>
   <i name="DEG_THRESHOLD">      0.00200000</i>
   <i name="RTIME">     -0.10000000</i>
   <i name="WPLASMAI">      0.00000000</i>
   <v name="DFIELD">      0.00000000      0.00000000      0.00000000</v>
   <v name="WPLASMA">      0.00000000      0.00000000      0.00000000      0.00000000      0.00000000      0.00000000      0.00000000      0.00000000      0.00000000</v>
  </separator>
  <separator name="orbital magnetization" >
   <i type="logical" name="NUCIND"> F  </i>
   <v name="MAGPOS">      0.00000000      0.00000000      0.00000000</v>
   <i type="logical" name="LNICSALL"> T  </i>
   <i type="logical" name="ORBITALMAG"> F  </i>
   <i type="logical" name="LMAGBLOCH"> F  </i>
   <i type="logical" name="LCHIMAG"> F  </i>
   <i type="logical" name="LGAUGE"> T  </i>
   <i type="int" name="MAGATOM">     0</i>
   <v name="MAGDIPOL">      0.00000000      0.00000000      0.00000000</v>
   <v name="AVECCONST">      0.00000000      0.00000000      0.00000000</v>
  </separator>
  <separator name="response functions" >
   <i type="logical" name="LFINITE_TEMPERATURE"> F  </i>
   <i type="logical" name="LADDER"> F  </i>
   <i type="logical" name="LRPAFORCE"> F  </i>
   <i type="logical" name="LFXC"> F  </i>
   <i type="logical" name="LHARTREE"> T  </i>
   <i type="int" name="IBSE">     0</i>
   <v type="int" name="KPOINT">    -1     0     0     0</v>
   <i type="logical" name="LTCTC"> F  </i>
   <i type="logical" name="LTCTE"> F  </i>
   <i type="logical" name="LTETE"> F  </i>
   <i type="logical" name="LTRIPLET"> F  </i>
   <i type="logical" name="LFXCEPS"> F  </i>
   <i type="logical" name="LFXHEG"> F  </i>
   <i type="int" name="NATURALO">     2</i>
   <i type="logical" name="LHOLEGF"> F  </i>
   <i type="logical" name="L2ORDER"> F  </i>
   <i type="logical" name="LDMP1"> F  </i>
   <i type="logical" name="LMP2LT"> F  </i>
   <i type="logical" name="LSMP2LT"> F  </i>
   <i type="logical" name="LGWLF"> F  </i>
   <i name="ENCUTGW">     -2.00000000</i>
   <i name="ENCUTGWSOFT">     -2.00000000</i>
   <i name="ENCUTLF">     -1.00000000</i>
   <i type="logical" name="LESF_SPLINES"> F  </i>
   <i type="int" name="LMAXMP2">    -1</i>
   <i name="SCISSOR">      0.00000000</i>
   <i type="int" name="NOMEGA">     0</i>
   <i type="int" name="NOMEGAR">     0</i>
   <i type="int" name="NBANDSGW">    -1</i>
   <i type="int" name="NBANDSO">    -1</i>
   <i type="int" name="NBANDSV">    -1</i>
   <i type="int" name="NELM">    60</i>
   <i type="int" name="NELMHF">     1</i>
   <i type="int" name="DIM">     3</i>
   <i type="int" name="IESPILON">     4</i>
   <i type="int" name="ANTIRES">     0</i>
   <i name="OMEGAMAX">    -30.00000000</i>
   <i name="OMEGAMIN">    -30.00000000</i>
   <i name="OMEGATL">   -200.00000000</i>
   <i type="int" name="OMEGAGRID">     0</i>
   <i name="CSHIFT">     -0.10000000</i>
   <i type="logical" name="LSELFENERGY"> F  </i>
   <i type="logical" name="LSPECTRAL"> F  </i>
   <i type="logical" name="LSPECTRALGW"> F  </i>
   <i type="logical" name="LSINGLES"> F  </i>
   <i type="logical" name="LFERMIGW"> F  </i>
   <i type="logical" name="ODDONLYGW"> F  </i>
   <i type="logical" name="EVENONLYGW"> F  </i>
   <i type="int" name="NKREDLFX">     1</i>
   <i type="int" name="NKREDLFY">     1</i>
   <i type="int" name="NKREDLFZ">     1</i>
   <i type="int" name="MAXMEM">  2800</i>
   <i type="int" name="TELESCOPE">     0</i>
   <i type="int" name="NTAUPAR">    -1</i>
   <i type="int" name="NOMEGAPAR">    -1</i>
   <i name="DAMP_NEWTON">      0.80000001</i>
   <i name="LAMBDA">      1.00000000</i>
  </separator>
  <separator name="External order field" >
   <i name="OFIELD_KAPPA">      0.00000000</i>
   <v name="OFIELD_K">      0.00000000      0.00000000      0.00000000</v>
   <i name="OFIELD_Q6_NEAR">      0.00000000</i>
   <i name="OFIELD_Q6_FAR">      0.00000000</i>
   <i name="OFIELD_A">      0.00000000</i>
  </separator>
 </parameters>
 <atominfo>
  <atoms>      64 </atoms>
  <types>       2 </types>
  <array name="atoms" >
   <dimension dim="1">ion</dimension>
   <field type="string">element</field>
   <field type="int">atomtype</field>
   <set>
    <rc><c>C </c><c>   1</c></rc>
    <rc><c>C </c><c>   1</c></rc>
    <rc><c>C </c><c>   1</c></rc>
    <rc><c>C </c><c>   1</c></rc>
    <rc><c>C </c><c>   1</c></rc>
    <rc><c>C </c><c>   1</c></rc>
    <rc><c>C </c><c>   1</c></rc>
    <rc><c>C </c><c>   1</c></rc>
    <rc><c>C </c><c>   1</c></rc>
    <rc><c>C </c><c>   1</c></rc>
    <rc><c>C </c><c>   1</c></rc>
    <rc><c>C </c><c>   1</c></rc>
    <rc><c>C </c><c>   1</c></rc>
    <rc><c>C </c><c>   1</c></rc>
    <rc><c>C </c><c>   1</c></rc>
    <rc><c>C </c><c>   1</c></rc>
    <rc><c>C </c><c>   1</c></rc>
    <rc><c>C </c><c>   1</c></rc>
    <rc><c>C </c><c>   1</c></rc>
    <rc><c>C </c><c>   1</c></rc>
    <rc><c>C </c><c>   1</c></rc>
    <rc><c>C </c><c>   1</c></rc>
    <rc><c>C </c><c>   1</c></rc>
    <rc><c>C </c><c>   1</c></rc>
    <rc><c>C </c><c>   1</c></rc>
    <rc><c>C </c><c>   1</c></rc>
    <rc><c>C </c><c>   1</c></rc>
    <rc><c>C </c><c>   1</c></rc>
    <rc><c>C </c><c>   1</c></rc>
    <rc><c>C </c><c>   1</c></rc>
    <rc><c>C </c><c>   1</c></rc>
    <rc><c>C </c><c>   1</c></rc>
    <rc><c>Si</c><c>   2</c></rc>
    <rc><c>Si</c><c>   2</c></rc>
    <rc><c>Si</c><c>   2</c></rc>
    <rc><c>Si</c><c>   2</c></rc>
    <rc><c>Si</c><c>   2</c></rc>
    <rc><c>Si</c><c>   2</c></rc>
    <rc><c>Si</c><c>   2</c></rc>
    <rc><c>Si</c><c>   2</c></rc>
    <rc><c>Si</c><c>   2</c></rc>
    <rc><c>Si</c><c>   2</c></rc>
    <rc><c>Si</c><c>   2</c></rc>
    <rc><c>Si</c><c>   2</c></rc>
    <rc><c>Si</c><c>   2</c></rc>
    <rc><c>Si</c><c>   2</c></rc>
    <rc><c>Si</c><c>   2</c></rc>
    <rc><c>Si</c><c>   2</c></rc>
    <rc><c>Si</c><c>   2</c></rc>
    <rc><c>Si</c><c>   2</c></rc>
    <rc><c>Si</c><c>   2</c></rc>
    <rc><c>Si</c><c>   2</c></rc>
    <rc><c>Si</c><c>   2</c></rc>
    <rc><c>Si</c><c>   2</c></rc>
    <rc><c>Si</c><c>   2</c></rc>
    <rc><c>Si</c><c>   2</c></rc>
    <rc><c>Si</c><c>   2</c></rc>
    <rc><c>Si</c><c>   2</c></rc>
    <rc><c>Si</c><c>   2</c></rc>
    <rc><c>Si</c><c>   2</c></rc>
    <rc><c>Si</c><c>   2</c></rc>
    <rc><c>Si</c><c>   2</c></rc>
    <rc><c>Si</c><c>   2</c></rc>
    <rc><c>Si</c><c>   2</c></rc>
   </set>
  </array>
  <array name="atomtypes" >
   <dimension dim="1">type</dimension>
   <field type="int">atomspertype</field>
   <field type="string">element</field>
   <field>mass</field>
   <field>valence</field>
   <field type="string">pseudopotential</field>
   <set>
    <rc><c>  32</c><c>C </c><c>     12.01100000</c><c>      4.00000000</c><c>  PAW_PBE C 08Apr2002                   </c></rc>
    <rc><c>  32</c><c>Si</c><c>     28.08500000</c><c>      4.00000000</c><c>  PAW_PBE Si 05Jan2001                  </c></rc>
   </set>
  </array>
 </atominfo>
 <structure name="initialpos" >
  <crystal>
   <varray name="basis" >
    <v>       8.74331558       0.00000000       0.00000000 </v>
    <v>       0.00000000       8.74331558       0.00000000 </v>
    <v>       0.00000000       0.00000000       8.74331558 </v>
   </varray>
   <i name="volume">    668.38771987 </i>
   <varray name="rec_basis" >
    <v>       0.11437309       0.00000000       0.00000000 </v>
    <v>       0.00000000       0.11437309       0.00000000 </v>
    <v>       0.00000000       0.00000000       0.11437309 </v>
   </varray>
  </crystal>
  <varray name="positions" >
   <v>       0.12604515       0.12140744       0.12607338 </v>
   <v>       0.12587171       0.37423485       0.37423827 </v>
   <v>       0.37718488       0.12210655       0.37818455 </v>
   <v>       0.37867848       0.37445249       0.12792779 </v>
   <v>       0.12481059       0.12390675       0.62587416 </v>
   <v>       0.12246695       0.37623345       0.87776895 </v>
   <v>       0.37405085       0.12524694       0.87257832 </v>
   <v>       0.37372115       0.37369231       0.62202686 </v>
   <v>       0.12385418       0.62059623       0.12365093 </v>
   <v>       0.12309843       0.87843529       0.37746405 </v>
   <v>       0.37595787       0.62302057       0.37239400 </v>
   <v>       0.37417627       0.87413196       0.12336687 </v>
   <v>       0.12444925       0.62073880       0.62341108 </v>
   <v>       0.12519661       0.87714225       0.87148504 </v>
   <v>       0.37509284       0.62434430       0.87352731 </v>
   <v>       0.38097343       0.87456084       0.62422759 </v>
   <v>       0.62208558       0.12554567       0.12397212 </v>
   <v>       0.62843960       0.37936310       0.37393340 </v>
   <v>       0.88001265       0.12224849       0.37430774 </v>
   <v>       0.87416511       0.37177894       0.12584657 </v>
   <v>       0.62348831       0.12324550       0.62806899 </v>
   <v>       0.62910392       0.37514877       0.87676108 </v>
   <v>       0.87423983       0.12759551       0.87472028 </v>
   <v>       0.87657428       0.37044992       0.62626301 </v>
   <v>       0.62502461       0.62344755       0.12315027 </v>
   <v>       0.62829077       0.87668783       0.37924987 </v>
   <v>       0.87441679       0.62270982       0.38003093 </v>
   <v>       0.87840876       0.87101188       0.12136888 </v>
   <v>       0.63025445       0.62659843       0.62287599 </v>
   <v>       0.62715369       0.87352893       0.87574997 </v>
   <v>       0.87222916       0.62312076       0.87491568 </v>
   <v>       0.87447556       0.87184440       0.62472119 </v>
   <v>       0.00158751       0.00127786       0.99999961 </v>
   <v>       0.00103772       0.25043447       0.24908727 </v>
   <v>       0.24870414       0.00552071       0.24908645 </v>
   <v>       0.25078450       0.24999344       0.99789960 </v>
   <v>       0.99715128       0.99880983       0.49874755 </v>
   <v>       0.99860694       0.24778004       0.74697480 </v>
   <v>       0.25673809       0.99919555       0.74916444 </v>
   <v>       0.24897745       0.24622763       0.49978341 </v>
   <v>       0.00175555       0.50318141       0.00133779 </v>
   <v>       0.99701524       0.75098487       0.25183340 </v>
   <v>       0.25480332       0.50195820       0.24467228 </v>
   <v>       0.25036722       0.75037431       0.00041586 </v>
   <v>       0.99665541       0.49704556       0.50160742 </v>
   <v>       0.00000638       0.75298504       0.75040159 </v>
   <v>       0.25045367       0.49880507       0.75083749 </v>
   <v>       0.24772621       0.75050285       0.50355057 </v>
   <v>       0.49878120       0.99812707       0.00264039 </v>
   <v>       0.50221903       0.24716370       0.25151267 </v>
   <v>       0.75026232       0.00093988       0.24716704 </v>
   <v>       0.75155692       0.25092772       0.00027382 </v>
   <v>       0.49855405       0.99919666       0.50209269 </v>
   <v>       0.50087961       0.24755824       0.75234538 </v>
   <v>       0.74917323       0.00024296       0.74687482 </v>
   <v>       0.75059996       0.24824304       0.50067678 </v>
   <v>       0.50016221       0.49784413       0.00192973 </v>
   <v>       0.49921031       0.74822097       0.25030662 </v>
   <v>       0.75073899       0.49899161       0.24982179 </v>
   <v>       0.75254176       0.74776813       0.00124491 </v>
   <v>       0.49879473       0.49884635       0.50072099 </v>
   <v>       0.49965419       0.75016686       0.75058488 </v>
   <v>       0.74968354       0.49929645       0.74755631 </v>
   <v>       0.75406463       0.75157367       0.49488819 </v>
  </varray>
 </structure>
 <calculation>
  <scstep>
   <time name="dav">   14.46   14.78</time>
   <time name="total">   14.52   14.83</time>
   <energy>
    <i name="alphaZ">    354.85177120 </i>
    <i name="ewald">  -9081.45789786 </i>
    <i name="hartreedc">   -671.87248774 </i>
    <i name="XCdc">    145.84483312 </i>
    <i name="pawpsdc">   6292.66707184 </i>
    <i name="pawaedc">  -5747.90303932 </i>
    <i name="eentropy">      0.00937904 </i>
    <i name="bandstr">   1370.62671443 </i>
    <i name="atom">   8006.17504320 </i>
    <i name="e_fr_energy">    668.94138791 </i>
    <i name="e_wo_entrp">    668.93200887 </i>
    <i name="e_0_energy">    668.93826156 </i>
   </energy>
  </scstep>
  <scstep>
   <time name="dav">   15.95   15.99</time>
   <time name="total">   15.96   15.99</time>
   <energy>
    <i name="e_fr_energy">   -462.60517541 </i>
    <i name="e_wo_entrp">   -462.62284044 </i>
    <i name="e_0_energy">   -462.61106376 </i>
   </energy>
  </scstep>
  <scstep>
   <time name="dav">   15.38   15.43</time>
   <time name="total">   15.38   15.43</time>
   <energy>
    <i name="e_fr_energy">   -537.75535609 </i>
    <i name="e_wo_entrp">   -537.77580192 </i>
    <i name="e_0_energy">   -537.76217136 </i>
   </energy>
  </scstep>
  <scstep>
   <time name="dav">   15.46   15.49</time>
   <time name="total">   15.47   15.49</time>
   <energy>
    <i name="e_fr_energy">   -539.41519382 </i>
    <i name="e_wo_entrp">   -539.43630370 </i>
    <i name="e_0_energy">   -539.42223044 </i>
   </energy>
  </scstep>
  <scstep>
   <time name="dav">   18.10   18.19</time>
   <time name="total">   18.34   18.43</time>
   <energy>
    <i name="e_fr_energy">   -539.46440967 </i>
    <i name="e_wo_entrp">   -539.48547010 </i>
    <i name="e_0_energy">   -539.47142981 </i>
   </energy>
  </scstep>
  <scstep>
   <time name="dav">   14.89   14.92</time>
   <time name="total">   15.19   15.22</time>
   <energy>
    <i name="e_fr_energy">   -482.80294126 </i>
    <i name="e_wo_entrp">   -482.81345605 </i>
    <i name="e_0_energy">   -482.80644619 </i>
   </energy>
  </scstep>
  <scstep>
   <time name="dav">   15.66   15.69</time>
   <time name="total">   16.35   16.44</time>
   <energy>
    <i name="e_fr_energy">   -481.44961580 </i>
    <i name="e_wo_entrp">   -481.45908182 </i>
    <i name="e_0_energy">   -481.45277114 </i>
   </energy>
  </scstep>
  <scstep>
   <time name="dav">   14.72   14.75</time>
   <time name="total">   15.04   15.07</time>
   <energy>
    <i name="e_fr_energy">   -481.22120648 </i>
    <i name="e_wo_entrp">   -481.23086937 </i>
    <i name="e_0_energy">   -481.22442744 </i>
   </energy>
  </scstep>
  <scstep>
   <time name="dav">   15.48   15.51</time>
   <time name="total">   16.12   16.19</time>
   <energy>
    <i name="e_fr_energy">   -481.20492621 </i>
    <i name="e_wo_entrp">   -481.21448059 </i>
    <i name="e_0_energy">   -481.20811100 </i>
   </energy>
  </scstep>
  <scstep>
   <time name="dav">   15.40   15.43</time>
   <time name="total">   15.74   15.78</time>
   <energy>
    <i name="e_fr_energy">   -481.20799620 </i>
    <i name="e_wo_entrp">   -481.21754580 </i>
    <i name="e_0_energy">   -481.21117940 </i>
   </energy>
  </scstep>
  <scstep>
   <time name="dav">   16.28   16.90</time>
   <time name="total">   17.12   17.85</time>
   <energy>
    <i name="e_fr_energy">   -481.20900213 </i>
    <i name="e_wo_entrp">   -481.21855454 </i>
    <i name="e_0_energy">   -481.21218627 </i>
   </energy>
  </scstep>
  <scstep>
   <time name="dav">   16.28   16.31</time>
   <time name="total">   16.79   16.82</time>
   <energy>
    <i name="e_fr_energy">   -481.20900669 </i>
    <i name="e_wo_entrp">   -481.21855616 </i>
    <i name="e_0_energy">   -481.21218985 </i>
   </energy>
  </scstep>
  <scstep>
   <time name="dav">   14.43   14.46</time>
   <time name="total">   15.05   15.11</time>
   <energy>
    <i name="e_fr_energy">   -481.20901797 </i>
    <i name="e_wo_entrp">   -481.21856877 </i>
    <i name="e_0_energy">   -481.21220157 </i>
   </energy>
  </scstep>
  <scstep>
   <time name="dav">   14.93   14.96</time>
   <time name="total">   15.28   15.31</time>
   <energy>
    <i name="e_fr_energy">   -481.20902444 </i>
    <i name="e_wo_entrp">   -481.21857534 </i>
    <i name="e_0_energy">   -481.21220807 </i>
   </energy>
  </scstep>
  <scstep>
   <time name="dav">   17.65   17.68</time>
   <time name="total">   18.34   18.39</time>
   <energy>
    <i name="e_fr_energy">   -481.20902636 </i>
    <i name="e_wo_entrp">   -481.21857709 </i>
    <i name="e_0_energy">   -481.21220993 </i>
   </energy>
  </scstep>
  <scstep>
   <time name="dav">   15.67   15.70</time>
   <time name="total">   16.04   16.07</time>
   <energy>
    <i name="e_fr_energy">   -481.20902606 </i>
    <i name="e_wo_entrp">   -481.21857685 </i>
    <i name="e_0_energy">   -481.21220966 </i>
   </energy>
  </scstep>
  <scstep>
   <time name="dav">   14.26   14.29</time>
   <time name="total">   14.64   14.72</time>
   <energy>
    <i name="e_fr_energy">   -481.20902625 </i>
    <i name="e_wo_entrp">   -481.21857701 </i>
    <i name="e_0_energy">   -481.21220983 </i>
   </energy>
  </scstep>
  <scstep>
   <time name="dav">    9.21    9.23</time>
   <time name="total">    9.26    9.28</time>
   <energy>
    <i name="alphaZ">    354.85177120 </i>
    <i name="ewald">  -9081.45789786 </i>
    <i name="hartreedc">  -1024.63848292 </i>
    <i name="XCdc">    179.28618120 </i>
    <i name="pawpsdc">  33049.03133554 </i>
    <i name="pawaedc"> -32509.96842096 </i>
    <i name="eentropy">      0.00955075 </i>
    <i name="bandstr">    545.50189361 </i>
    <i name="atom">   8006.17504320 </i>
    <i name="e_fr_energy">   -481.20902624 </i>
    <i name="e_wo_entrp">   -481.21857699 </i>
    <i name="e_0_energy">   -481.21220983 </i>
   </energy>
  </scstep>
  <structure>
   <crystal>
    <varray name="basis" >
     <v>       8.74331558       0.00000000       0.00000000 </v>
     <v>       0.00000000       8.74331558       0.00000000 </v>
     <v>       0.00000000       0.00000000       8.74331558 </v>
    </varray>
    <i name="volume">    668.38771987 </i>
    <varray name="rec_basis" >
     <v>       0.11437309       0.00000000       0.00000000 </v>
     <v>       0.00000000       0.11437309       0.00000000 </v>
     <v>       0.00000000       0.00000000       0.11437309 </v>
    </varray>
   </crystal>
   <varray name="positions" >
    <v>       0.12604515       0.12140744       0.12607338 </v>
    <v>       0.12587171       0.37423485       0.37423827 </v>
    <v>       0.37718488       0.12210655       0.37818455 </v>
    <v>       0.37867848       0.37445249       0.12792779 </v>
    <v>       0.12481059       0.12390675       0.62587416 </v>
    <v>       0.12246695       0.37623345       0.87776895 </v>
    <v>       0.37405085       0.12524694       0.87257832 </v>
    <v>       0.37372115       0.37369231       0.62202686 </v>
    <v>       0.12385418       0.62059623       0.12365093 </v>
    <v>       0.12309843       0.87843529       0.37746405 </v>
    <v>       0.37595787       0.62302057       0.37239400 </v>
    <v>       0.37417627       0.87413196       0.12336687 </v>
    <v>       0.12444925       0.62073880       0.62341108 </v>
    <v>       0.12519661       0.87714225       0.87148504 </v>
    <v>       0.37509284       0.62434430       0.87352731 </v>
    <v>       0.38097343       0.87456084       0.62422759 </v>
    <v>       0.62208558       0.12554567       0.12397212 </v>
    <v>       0.62843960       0.37936310       0.37393340 </v>
    <v>       0.88001265       0.12224849       0.37430774 </v>
    <v>       0.87416511       0.37177894       0.12584657 </v>
    <v>       0.62348831       0.12324550       0.62806899 </v>
    <v>       0.62910392       0.37514877       0.87676108 </v>
    <v>       0.87423983       0.12759551       0.87472028 </v>
    <v>       0.87657428       0.37044992       0.62626301 </v>
    <v>       0.62502461       0.62344755       0.12315027 </v>
    <v>       0.62829077       0.87668783       0.37924987 </v>
    <v>       0.87441679       0.62270982       0.38003093 </v>
    <v>       0.87840876       0.87101188       0.12136888 </v>
    <v>       0.63025445       0.62659843       0.62287599 </v>
    <v>       0.62715369       0.87352893       0.87574997 </v>
    <v>       0.87222916       0.62312076       0.87491568 </v>
    <v>       0.87447556       0.87184440       0.62472119 </v>
    <v>       0.00158751       0.00127786       0.99999961 </v>
    <v>       0.00103772       0.25043447       0.24908727 </v>
    <v>       0.24870414       0.00552071       0.24908645 </v>
    <v>       0.25078450       0.24999344       0.99789960 </v>
    <v>       0.99715128       0.99880983       0.49874755 </v>
    <v>       0.99860694       0.24778004       0.74697480 </v>
    <v>       0.25673809       0.99919555       0.74916444 </v>
    <v>       0.24897745       0.24622763       0.49978341 </v>
    <v>       0.00175555       0.50318141       0.00133779 </v>
    <v>       0.99701524       0.75098487       0.25183340 </v>
    <v>       0.25480332       0.50195820       0.24467228 </v>
    <v>       0.25036722       0.75037431       0.00041586 </v>
    <v>       0.99665541       0.49704556       0.50160742 </v>
    <v>       0.00000638       0.75298504       0.75040159 </v>
    <v>       0.25045367       0.49880507       0.75083749 </v>
    <v>       0.24772621       0.75050285       0.50355057 </v>
    <v>       0.49878120       0.99812707       0.00264039 </v>
    <v>       0.50221903       0.24716370       0.25151267 </v>
    <v>       0.75026232       0.00093988       0.24716704 </v>
    <v>       0.75155692       0.25092772       0.00027382 </v>
    <v>       0.49855405       0.99919666       0.50209269 </v>
    <v>       0.50087961       0.24755824       0.75234538 </v>
    <v>       0.74917323       0.00024296       0.74687482 </v>
    <v>       0.75059996       0.24824304       0.50067678 </v>
    <v>       0.50016221       0.49784413       0.00192973 </v>
    <v>       0.49921031       0.74822097       0.25030662 </v>
    <v>       0.75073899       0.49899161       0.24982179 </v>
    <v>       0.75254176       0.74776813       0.00124491 </v>
    <v>       0.49879473       0.49884635       0.50072099 </v>
    <v>       0.49965419       0.75016686       0.75058488 </v>
    <v>       0.74968354       0.49929645       0.74755631 </v>
    <v>       0.75406463       0.75157367       0.49488819 </v>
   </varray>
  </structure>
  <varray name="forces" >
   <v>      -0.15106473       1.10694820      -0.57181019 </v>
   <v>       0.11068243       0.17659185      -0.21913464 </v>
   <v>      -0.25288771       0.39112330      -0.55976216 </v>
   <v>      -0.35223294      -0.55167048      -0.65525256 </v>
   <v>       0.16100997      -0.38933410      -0.18300351 </v>
   <v>       0.41012562      -0.37530774      -0.56046210 </v>
   <v>       0.43816160      -0.16194387       0.76058194 </v>
   <v>       0.31701424      -0.23977378       0.75361247 </v>
   <v>       0.43197908       1.36055143       0.52895729 </v>
   <v>       0.46218069      -0.59295269      -0.50640686 </v>
   <v>      -0.31217717       0.59681228       0.60112520 </v>
   <v>      -0.13313442       0.16943950       0.71326876 </v>
   <v>      -0.13154450       0.65337930       0.58639491 </v>
   <v>       0.46349008      -0.15792177       0.52656109 </v>
   <v>       0.03187520      -0.07446150       0.39016360 </v>
   <v>      -1.07989844      -0.32354331       0.26450328 </v>
   <v>       0.62780965      -0.22478345       0.05503894 </v>
   <v>      -0.55946965      -1.26154434       0.47780822 </v>
   <v>      -1.14117941       0.53409965      -0.25459671 </v>
   <v>       0.40508072       0.64714997      -0.02027600 </v>
   <v>       0.12051615       0.32405300      -0.73281918 </v>
   <v>      -0.84684363      -0.07948242      -0.36628515 </v>
   <v>       0.12142749      -0.71135956       0.01232540 </v>
   <v>      -0.54467723       0.45905345      -0.31365446 </v>
   <v>       0.16965473       0.27414213       0.54483610 </v>
   <v>      -0.53779827      -0.02395139      -1.20167304 </v>
   <v>       0.25507818       0.15900851      -1.29088922 </v>
   <v>      -0.50217628       0.74631302       0.54524806 </v>
   <v>      -0.96713585      -0.20472825       0.03850003 </v>
   <v>      -0.31114217       0.30677880       0.13661514 </v>
   <v>       0.79525272       0.26558829      -0.10046960 </v>
   <v>       0.10796880       0.75361448      -0.15411356 </v>
   <v>      -0.18505699      -0.22778749      -0.53994448 </v>
   <v>       0.18838648      -0.07018471       0.23907538 </v>
   <v>       0.47165759      -1.42159686       0.60674093 </v>
   <v>      -0.23053914       0.11911177       0.42981021 </v>
   <v>       0.57346609       0.04104921       0.76961732 </v>
   <v>       0.62509417       0.20408373       0.95114521 </v>
   <v>      -1.17434256       0.04659456      -0.26142144 </v>
   <v>      -0.09400133       0.59440573      -0.04626393 </v>
   <v>      -0.95399819      -0.93829783      -0.46042335 </v>
   <v>       0.88383964      -0.57703191       0.11924149 </v>
   <v>      -0.93358435      -0.64383100       1.10253050 </v>
   <v>      -0.44242413      -0.21560238      -0.44425203 </v>
   <v>       0.88609329      -0.14272909      -0.28341698 </v>
   <v>      -0.07816636      -0.97760345      -0.10613295 </v>
   <v>      -0.25960514      -0.16530808      -0.21744600 </v>
   <v>       0.34932188      -0.29057658      -0.83601952 </v>
   <v>       0.32934210       0.08424130      -0.83973139 </v>
   <v>      -0.02527462       0.63617632       0.37240884 </v>
   <v>       0.16525276      -0.31899484       0.28140837 </v>
   <v>      -0.25898707      -0.20805971      -0.07630227 </v>
   <v>       0.90512377      -0.01554690      -0.30286020 </v>
   <v>       0.04738372       0.83707606      -0.31266908 </v>
   <v>       0.27327578      -0.44497236       0.87183801 </v>
   <v>      -0.06491266       0.03472820      -0.31883687 </v>
   <v>       0.32064272       0.23024238      -0.60986369 </v>
   <v>       0.51240300       0.40819267       0.08670602 </v>
   <v>       0.11574996       0.25296775      -0.11839966 </v>
   <v>      -0.58004887       0.01941671      -0.58011902 </v>
   <v>       0.54066091       0.37229541      -0.15232192 </v>
   <v>       0.99091891      -0.42758472      -0.03978420 </v>
   <v>       0.19083308       0.01413413       0.28934450 </v>
   <v>      -0.69444942      -0.36089652       1.18141067 </v>
  </varray>
  <varray name="stress" >
   <v>       3.18262591      -1.10647250       3.92716281 </v>
   <v>      -1.10647248       3.22034516      -2.24989542 </v>
   <v>       3.92716280      -2.24989540       3.18657982 </v>
  </varray>
  <energy>
   <i name="e_fr_energy">   -481.20902624 </i>
   <i name="e_wo_entrp">   -481.21857699 </i>
   <i name="e_0_energy">   -481.21220983 </i>
  </energy>
  <time name="totalsc">  292.40  294.24</time>
  <eigenvalues>
   <array>
    <dimension dim="1">band</dimension>
    <dimension dim="2">kpoint</dimension>
    <dimension dim="3">spin</dimension>
    <field>eigene</field>
    <field>occ</field>
    <set>
     <set comment="spin 1">
      <set comment="kpoint 1">
       <r>   -7.3401    1.0000 </r>
       <r>   -5.8396    1.0000 </r>
       <r>   -5.8258    1.0000 </r>
       <r>   -5.7456    1.0000 </r>
       <r>   -5.7415    1.0000 </r>
       <r>   -5.7133    1.0000 </r>
       <r>   -5.6731    1.0000 </r>
       <r>   -4.4674    1.0000 </r>
       <r>   -4.4496    1.0000 </r>
       <r>   -4.4282    1.0000 </r>
       <r>   -4.4011    1.0000 </r>
       <r>   -4.3811    1.0000 </r>
       <r>   -4.3446    1.0000 </r>
       <r>   -4.3274    1.0000 </r>
       <r>   -4.3216    1.0000 </r>
       <r>   -4.2979    1.0000 </r>
       <r>   -4.2647    1.0000 </r>
       <r>   -4.2401    1.0000 </r>
       <r>   -4.1544    1.0000 </r>
       <r>   -3.8787    1.0000 </r>
       <r>   -3.8260    1.0000 </r>
       <r>   -3.7851    1.0000 </r>
       <r>   -3.6929    1.0000 </r>
       <r>   -2.4191    1.0000 </r>
       <r>   -2.4056    1.0000 </r>
       <r>   -2.2960    1.0000 </r>
       <r>   -2.2188    1.0000 </r>
       <r>   -2.1754    1.0000 </r>
       <r>   -2.1332    1.0000 </r>
       <r>   -2.1103    1.0000 </r>
       <r>   -2.0883    1.0000 </r>
       <r>   -2.0356    1.0000 </r>
       <r>   -0.5789    1.0000 </r>
       <r>   -0.4888    1.0000 </r>
       <r>   -0.4564    1.0000 </r>
       <r>   -0.4250    1.0000 </r>
       <r>    0.2162    1.0000 </r>
       <r>    0.2362    1.0000 </r>
       <r>    0.2422    1.0000 </r>
       <r>    0.9338    1.0000 </r>
       <r>    0.9754    1.0000 </r>
       <r>    0.9867    1.0000 </r>
       <r>    0.9954    1.0000 </r>
       <r>    1.0073    1.0000 </r>
       <r>    1.0298    1.0000 </r>
       <r>    1.9722    1.0000 </r>
       <r>    1.9919    1.0000 </r>
       <r>    2.0089    1.0000 </r>
       <r>    2.0143    1.0000 </r>
       <r>    2.0452    1.0000 </r>
       <r>    2.0576    1.0000 </r>
       <r>    2.1002    1.0000 </r>
       <r>    2.1118    1.0000 </r>
       <r>    2.1196    1.0000 </r>
       <r>    2.1354    1.0000 </r>
       <r>    2.1708    1.0000 </r>
       <r>    2.1733    1.0000 </r>
       <r>    3.0034    1.0000 </r>
       <r>    3.0231    1.0000 </r>
       <r>    3.0344    1.0000 </r>
       <r>    3.0466    1.0000 </r>
       <r>    3.0769    1.0000 </r>
       <r>    3.1040    1.0000 </r>
       <r>    3.2867    1.0000 </r>
       <r>    3.3154    1.0000 </r>
       <r>    3.3414    1.0000 </r>
       <r>    3.3566    1.0000 </r>
       <r>    3.3645    1.0000 </r>
       <r>    3.3907    1.0000 </r>
       <r>    3.6028    1.0000 </r>
       <r>    3.6204    1.0000 </r>
       <r>    3.6235    1.0000 </r>
       <r>    3.6417    1.0000 </r>
       <r>    3.6522    1.0000 </r>
       <r>    3.6865    1.0000 </r>
       <r>    3.7037    1.0000 </r>
       <r>    3.7156    1.0000 </r>
       <r>    3.7347    1.0000 </r>
       <r>    3.7506    1.0000 </r>
       <r>    3.7723    1.0000 </r>
       <r>    3.8231    1.0000 </r>
       <r>    4.5920    1.0000 </r>
       <r>    4.6249    1.0000 </r>
       <r>    4.6377    1.0000 </r>
       <r>    4.6468    1.0000 </r>
       <r>    4.6611    1.0000 </r>
       <r>    4.7250    1.0000 </r>
       <r>    4.8109    1.0000 </r>
       <r>    4.8345    1.0000 </r>
       <r>    4.8393    1.0000 </r>
       <r>    4.8426    1.0000 </r>
       <r>    4.8544    1.0000 </r>
       <r>    4.8752    1.0000 </r>
       <r>    5.9657    1.0000 </r>
       <r>    5.9943    1.0000 </r>
       <r>    6.0051    1.0000 </r>
       <r>    6.0139    1.0000 </r>
       <r>    6.0245    1.0000 </r>
       <r>    6.0691    1.0000 </r>
       <r>    6.0798    1.0000 </r>
       <r>    6.1161    1.0000 </r>
       <r>    6.1343    1.0000 </r>
       <r>    6.1584    1.0000 </r>
       <r>    6.1753    1.0000 </r>
       <r>    6.1858    1.0000 </r>
       <r>    6.6870    1.0000 </r>
       <r>    6.6948    1.0000 </r>
       <r>    6.7406    1.0000 </r>
       <r>    6.7646    1.0000 </r>
       <r>    6.7799    1.0000 </r>
       <r>    6.8048    1.0000 </r>
       <r>    6.8220    1.0000 </r>
       <r>    6.8306    1.0000 </r>
       <r>    6.8446    1.0000 </r>
       <r>    6.8649    1.0000 </r>
       <r>    6.8895    1.0000 </r>
       <r>    6.9212    1.0000 </r>
       <r>    6.9235    1.0000 </r>
       <r>    6.9437    1.0000 </r>
       <r>    6.9585    1.0000 </r>
       <r>    6.9794    1.0000 </r>
       <r>    7.0065    1.0000 </r>
       <r>    7.0387    1.0000 </r>
       <r>    7.0587    1.0000 </r>
       <r>    7.0898    1.0000 </r>
       <r>    7.9848    0.9962 </r>
       <r>    8.0287    0.9226 </r>
       <r>    8.0479    0.8754 </r>
       <r>    9.2618   -0.0000 </r>
       <r>    9.3823   -0.0000 </r>
       <r>    9.4424   -0.0000 </r>
       <r>   11.8952   -0.0000 </r>
       <r>   11.9528   -0.0000 </r>
       <r>   12.0123   -0.0000 </r>
       <r>   12.0373   -0.0000 </r>
       <r>   12.0529   -0.0000 </r>
       <r>   12.0987   -0.0000 </r>
       <r>   12.2502   -0.0000 </r>
       <r>   12.2796   -0.0000 </r>
       <r>   12.3070   -0.0000 </r>
       <r>   13.0881   -0.0000 </r>
       <r>   13.1093   -0.0000 </r>
       <r>   13.1303   -0.0000 </r>
       <r>   13.1912   -0.0000 </r>
       <r>   13.1993   -0.0000 </r>
       <r>   13.2519   -0.0000 </r>
       <r>   13.3026   -0.0000 </r>
       <r>   13.3193   -0.0000 </r>
       <r>   13.3250   -0.0000 </r>
       <r>   13.3426   -0.0000 </r>
       <r>   13.3727   -0.0000 </r>
       <r>   13.3958   -0.0000 </r>
       <r>   13.4342   -0.0000 </r>
       <r>   13.4549   -0.0000 </r>
       <r>   13.4626   -0.0000 </r>
       <r>   13.4920   -0.0000 </r>
       <r>   13.5148   -0.0000 </r>
       <r>   13.5385   -0.0000 </r>
       <r>   13.5579   -0.0000 </r>
       <r>   13.5791   -0.0000 </r>
       <r>   13.5992   -0.0000 </r>
       <r>   13.6434    0.0000 </r>
       <r>   14.0937    0.0000 </r>
       <r>   14.1910    0.0000 </r>
       <r>   14.2449    0.0000 </r>
       <r>   14.2830    0.0000 </r>
       <r>   14.3036    0.0000 </r>
       <r>   14.3470    0.0000 </r>
      </set>
      <set comment="kpoint 2">
       <r>   -7.1609    1.0000 </r>
       <r>   -6.6288    1.0000 </r>
       <r>   -5.6655    1.0000 </r>
       <r>   -5.5941    1.0000 </r>
       <r>   -5.5688    1.0000 </r>
       <r>   -5.5478    1.0000 </r>
       <r>   -5.1705    1.0000 </r>
       <r>   -5.1104    1.0000 </r>
       <r>   -5.0770    1.0000 </r>
       <r>   -5.0614    1.0000 </r>
       <r>   -4.5906    1.0000 </r>
       <r>   -4.2908    1.0000 </r>
       <r>   -4.2518    1.0000 </r>
       <r>   -4.2442    1.0000 </r>
       <r>   -4.1293    1.0000 </r>
       <r>   -4.0413    1.0000 </r>
       <r>   -3.9897    1.0000 </r>
       <r>   -3.9761    1.0000 </r>
       <r>   -3.8604    1.0000 </r>
       <r>   -3.4542    1.0000 </r>
       <r>   -3.3980    1.0000 </r>
       <r>   -3.3685    1.0000 </r>
       <r>   -3.3422    1.0000 </r>
       <r>   -3.2292    1.0000 </r>
       <r>   -2.5675    1.0000 </r>
       <r>   -2.5390    1.0000 </r>
       <r>   -2.4992    1.0000 </r>
       <r>   -2.4690    1.0000 </r>
       <r>   -2.3478    1.0000 </r>
       <r>   -2.2410    1.0000 </r>
       <r>   -2.2374    1.0000 </r>
       <r>   -2.1316    1.0000 </r>
       <r>   -0.1125    1.0000 </r>
       <r>   -0.0253    1.0000 </r>
       <r>    0.0045    1.0000 </r>
       <r>    0.0364    1.0000 </r>
       <r>    0.3687    1.0000 </r>
       <r>    0.3766    1.0000 </r>
       <r>    0.7138    1.0000 </r>
       <r>    0.7319    1.0000 </r>
       <r>    0.9722    1.0000 </r>
       <r>    1.0228    1.0000 </r>
       <r>    1.0430    1.0000 </r>
       <r>    1.0704    1.0000 </r>
       <r>    1.0854    1.0000 </r>
       <r>    1.1163    1.0000 </r>
       <r>    1.1421    1.0000 </r>
       <r>    1.1657    1.0000 </r>
       <r>    1.2491    1.0000 </r>
       <r>    1.3587    1.0000 </r>
       <r>    1.4033    1.0000 </r>
       <r>    1.4234    1.0000 </r>
       <r>    1.4604    1.0000 </r>
       <r>    2.6750    1.0000 </r>
       <r>    2.6919    1.0000 </r>
       <r>    2.7077    1.0000 </r>
       <r>    2.7488    1.0000 </r>
       <r>    2.9042    1.0000 </r>
       <r>    2.9228    1.0000 </r>
       <r>    2.9435    1.0000 </r>
       <r>    2.9597    1.0000 </r>
       <r>    2.9928    1.0000 </r>
       <r>    3.0199    1.0000 </r>
       <r>    3.0286    1.0000 </r>
       <r>    3.0596    1.0000 </r>
       <r>    3.0702    1.0000 </r>
       <r>    3.5242    1.0000 </r>
       <r>    3.5267    1.0000 </r>
       <r>    3.6431    1.0000 </r>
       <r>    3.6583    1.0000 </r>
       <r>    3.9876    1.0000 </r>
       <r>    4.0107    1.0000 </r>
       <r>    4.0455    1.0000 </r>
       <r>    4.0639    1.0000 </r>
       <r>    4.3420    1.0000 </r>
       <r>    4.3564    1.0000 </r>
       <r>    4.3735    1.0000 </r>
       <r>    4.3973    1.0000 </r>
       <r>    4.4075    1.0000 </r>
       <r>    4.4458    1.0000 </r>
       <r>    4.4636    1.0000 </r>
       <r>    4.4848    1.0000 </r>
       <r>    4.6077    1.0000 </r>
       <r>    4.6424    1.0000 </r>
       <r>    4.6764    1.0000 </r>
       <r>    4.6926    1.0000 </r>
       <r>    4.7591    1.0000 </r>
       <r>    4.7974    1.0000 </r>
       <r>    4.8442    1.0000 </r>
       <r>    4.8885    1.0000 </r>
       <r>    4.9751    1.0000 </r>
       <r>    4.9994    1.0000 </r>
       <r>    5.3897    1.0000 </r>
       <r>    5.4114    1.0000 </r>
       <r>    5.5681    1.0000 </r>
       <r>    5.5949    1.0000 </r>
       <r>    5.6398    1.0000 </r>
       <r>    5.6687    1.0000 </r>
       <r>    5.8385    1.0000 </r>
       <r>    5.8914    1.0000 </r>
       <r>    5.9106    1.0000 </r>
       <r>    5.9278    1.0000 </r>
       <r>    6.1828    1.0000 </r>
       <r>    6.2222    1.0000 </r>
       <r>    6.2579    1.0000 </r>
       <r>    6.3128    1.0000 </r>
       <r>    6.3358    1.0000 </r>
       <r>    6.4397    1.0000 </r>
       <r>    6.4694    1.0000 </r>
       <r>    6.5039    1.0000 </r>
       <r>    6.5282    1.0000 </r>
       <r>    6.7424    1.0000 </r>
       <r>    6.7936    1.0000 </r>
       <r>    6.8203    1.0000 </r>
       <r>    6.8476    1.0000 </r>
       <r>    6.8692    1.0000 </r>
       <r>    6.8841    1.0000 </r>
       <r>    6.8917    1.0000 </r>
       <r>    6.9171    1.0000 </r>
       <r>    6.9364    1.0000 </r>
       <r>    6.9530    1.0000 </r>
       <r>    6.9724    1.0000 </r>
       <r>    6.9818    1.0000 </r>
       <r>    7.0201    1.0000 </r>
       <r>    7.0614    1.0000 </r>
       <r>    7.4717    1.0000 </r>
       <r>    7.6697    1.0018 </r>
       <r>    7.6970    1.0031 </r>
       <r>    9.6757   -0.0000 </r>
       <r>   10.1483   -0.0000 </r>
       <r>   10.2675   -0.0000 </r>
       <r>   10.6186   -0.0000 </r>
       <r>   11.9136   -0.0000 </r>
       <r>   12.0185   -0.0000 </r>
       <r>   12.4839   -0.0000 </r>
       <r>   12.5641   -0.0000 </r>
       <r>   12.6409   -0.0000 </r>
       <r>   12.6582   -0.0000 </r>
       <r>   12.7198   -0.0000 </r>
       <r>   12.9089   -0.0000 </r>
       <r>   12.9345   -0.0000 </r>
       <r>   12.9774   -0.0000 </r>
       <r>   13.0115   -0.0000 </r>
       <r>   13.0281   -0.0000 </r>
       <r>   13.0591   -0.0000 </r>
       <r>   13.0834   -0.0000 </r>
       <r>   13.1044   -0.0000 </r>
       <r>   13.1310   -0.0000 </r>
       <r>   13.1516   -0.0000 </r>
       <r>   13.1910   -0.0000 </r>
       <r>   13.4987   -0.0000 </r>
       <r>   13.5897   -0.0000 </r>
       <r>   13.6179    0.0000 </r>
       <r>   13.6435    0.0000 </r>
       <r>   13.6537    0.0000 </r>
       <r>   13.6707    0.0000 </r>
       <r>   13.6914    0.0000 </r>
       <r>   13.7035    0.0000 </r>
       <r>   13.7293    0.0000 </r>
       <r>   13.8999    0.0000 </r>
       <r>   13.9669    0.0000 </r>
       <r>   14.0033    0.0000 </r>
       <r>   14.0416    0.0000 </r>
       <r>   14.4661    0.0000 </r>
       <r>   14.8023    0.0000 </r>
       <r>   14.8269    0.0000 </r>
       <r>   14.8683    0.0000 </r>
       <r>   14.9149    0.0000 </r>
      </set>
      <set comment="kpoint 3">
       <r>   -7.1622    1.0000 </r>
       <r>   -6.6244    1.0000 </r>
       <r>   -5.6664    1.0000 </r>
       <r>   -5.6360    1.0000 </r>
       <r>   -5.5545    1.0000 </r>
       <r>   -5.5268    1.0000 </r>
       <r>   -5.1790    1.0000 </r>
       <r>   -5.1268    1.0000 </r>
       <r>   -5.0668    1.0000 </r>
       <r>   -5.0319    1.0000 </r>
       <r>   -4.5894    1.0000 </r>
       <r>   -4.3163    1.0000 </r>
       <r>   -4.2584    1.0000 </r>
       <r>   -4.2457    1.0000 </r>
       <r>   -4.1260    1.0000 </r>
       <r>   -4.0418    1.0000 </r>
       <r>   -3.9896    1.0000 </r>
       <r>   -3.9518    1.0000 </r>
       <r>   -3.8549    1.0000 </r>
       <r>   -3.4656    1.0000 </r>
       <r>   -3.4316    1.0000 </r>
       <r>   -3.3595    1.0000 </r>
       <r>   -3.3194    1.0000 </r>
       <r>   -3.2241    1.0000 </r>
       <r>   -2.5858    1.0000 </r>
       <r>   -2.5573    1.0000 </r>
       <r>   -2.4830    1.0000 </r>
       <r>   -2.4454    1.0000 </r>
       <r>   -2.3371    1.0000 </r>
       <r>   -2.2927    1.0000 </r>
       <r>   -2.1747    1.0000 </r>
       <r>   -2.1587    1.0000 </r>
       <r>   -0.1161    1.0000 </r>
       <r>   -0.0279    1.0000 </r>
       <r>    0.0058    1.0000 </r>
       <r>    0.0411    1.0000 </r>
       <r>    0.3582    1.0000 </r>
       <r>    0.3816    1.0000 </r>
       <r>    0.7133    1.0000 </r>
       <r>    0.7417    1.0000 </r>
       <r>    0.9841    1.0000 </r>
       <r>    1.0292    1.0000 </r>
       <r>    1.0506    1.0000 </r>
       <r>    1.0573    1.0000 </r>
       <r>    1.0760    1.0000 </r>
       <r>    1.1061    1.0000 </r>
       <r>    1.1304    1.0000 </r>
       <r>    1.1795    1.0000 </r>
       <r>    1.2424    1.0000 </r>
       <r>    1.3810    1.0000 </r>
       <r>    1.3890    1.0000 </r>
       <r>    1.4318    1.0000 </r>
       <r>    1.4484    1.0000 </r>
       <r>    2.6785    1.0000 </r>
       <r>    2.6829    1.0000 </r>
       <r>    2.7216    1.0000 </r>
       <r>    2.7379    1.0000 </r>
       <r>    2.9083    1.0000 </r>
       <r>    2.9269    1.0000 </r>
       <r>    2.9430    1.0000 </r>
       <r>    2.9682    1.0000 </r>
       <r>    2.9761    1.0000 </r>
       <r>    3.0108    1.0000 </r>
       <r>    3.0407    1.0000 </r>
       <r>    3.0601    1.0000 </r>
       <r>    3.0785    1.0000 </r>
       <r>    3.5234    1.0000 </r>
       <r>    3.5273    1.0000 </r>
       <r>    3.6460    1.0000 </r>
       <r>    3.6494    1.0000 </r>
       <r>    3.9998    1.0000 </r>
       <r>    4.0171    1.0000 </r>
       <r>    4.0387    1.0000 </r>
       <r>    4.0650    1.0000 </r>
       <r>    4.3428    1.0000 </r>
       <r>    4.3529    1.0000 </r>
       <r>    4.3806    1.0000 </r>
       <r>    4.3940    1.0000 </r>
       <r>    4.4149    1.0000 </r>
       <r>    4.4415    1.0000 </r>
       <r>    4.4648    1.0000 </r>
       <r>    4.4791    1.0000 </r>
       <r>    4.5995    1.0000 </r>
       <r>    4.6089    1.0000 </r>
       <r>    4.6855    1.0000 </r>
       <r>    4.7067    1.0000 </r>
       <r>    4.7309    1.0000 </r>
       <r>    4.8131    1.0000 </r>
       <r>    4.8358    1.0000 </r>
       <r>    4.9187    1.0000 </r>
       <r>    4.9710    1.0000 </r>
       <r>    4.9945    1.0000 </r>
       <r>    5.3928    1.0000 </r>
       <r>    5.4283    1.0000 </r>
       <r>    5.5581    1.0000 </r>
       <r>    5.5710    1.0000 </r>
       <r>    5.6546    1.0000 </r>
       <r>    5.6805    1.0000 </r>
       <r>    5.8562    1.0000 </r>
       <r>    5.8756    1.0000 </r>
       <r>    5.9097    1.0000 </r>
       <r>    5.9278    1.0000 </r>
       <r>    6.1597    1.0000 </r>
       <r>    6.1931    1.0000 </r>
       <r>    6.2729    1.0000 </r>
       <r>    6.3057    1.0000 </r>
       <r>    6.3668    1.0000 </r>
       <r>    6.4379    1.0000 </r>
       <r>    6.4543    1.0000 </r>
       <r>    6.5081    1.0000 </r>
       <r>    6.5532    1.0000 </r>
       <r>    6.7389    1.0000 </r>
       <r>    6.8083    1.0000 </r>
       <r>    6.8179    1.0000 </r>
       <r>    6.8451    1.0000 </r>
       <r>    6.8606    1.0000 </r>
       <r>    6.8745    1.0000 </r>
       <r>    6.8941    1.0000 </r>
       <r>    6.9147    1.0000 </r>
       <r>    6.9421    1.0000 </r>
       <r>    6.9571    1.0000 </r>
       <r>    6.9790    1.0000 </r>
       <r>    6.9945    1.0000 </r>
       <r>    7.0081    1.0000 </r>
       <r>    7.0515    1.0000 </r>
       <r>    7.4737    1.0000 </r>
       <r>    7.6580    1.0014 </r>
       <r>    7.7045    1.0036 </r>
       <r>    9.6695   -0.0000 </r>
       <r>   10.1962   -0.0000 </r>
       <r>   10.2228   -0.0000 </r>
       <r>   10.6210   -0.0000 </r>
       <r>   11.9549   -0.0000 </r>
       <r>   11.9848   -0.0000 </r>
       <r>   12.4787   -0.0000 </r>
       <r>   12.5597   -0.0000 </r>
       <r>   12.6064   -0.0000 </r>
       <r>   12.6835   -0.0000 </r>
       <r>   12.7131   -0.0000 </r>
       <r>   12.9007   -0.0000 </r>
       <r>   12.9304   -0.0000 </r>
       <r>   12.9907   -0.0000 </r>
       <r>   12.9991   -0.0000 </r>
       <r>   13.0288   -0.0000 </r>
       <r>   13.0381   -0.0000 </r>
       <r>   13.0740   -0.0000 </r>
       <r>   13.0980   -0.0000 </r>
       <r>   13.1523   -0.0000 </r>
       <r>   13.1894   -0.0000 </r>
       <r>   13.2171   -0.0000 </r>
       <r>   13.4781   -0.0000 </r>
       <r>   13.5819   -0.0000 </r>
       <r>   13.6006   -0.0000 </r>
       <r>   13.6384    0.0000 </r>
       <r>   13.6664    0.0000 </r>
       <r>   13.6872    0.0000 </r>
       <r>   13.7013    0.0000 </r>
       <r>   13.7122    0.0000 </r>
       <r>   13.7397    0.0000 </r>
       <r>   13.8970    0.0000 </r>
       <r>   13.9318    0.0000 </r>
       <r>   14.0167    0.0000 </r>
       <r>   14.0488    0.0000 </r>
       <r>   14.4691    0.0000 </r>
       <r>   14.7940    0.0000 </r>
       <r>   14.8080    0.0000 </r>
       <r>   14.8498    0.0000 </r>
       <r>   14.8959    0.0000 </r>
      </set>
      <set comment="kpoint 4">
       <r>   -7.1611    1.0000 </r>
       <r>   -6.6283    1.0000 </r>
       <r>   -5.6687    1.0000 </r>
       <r>   -5.5954    1.0000 </r>
       <r>   -5.5821    1.0000 </r>
       <r>   -5.5307    1.0000 </r>
       <r>   -5.1784    1.0000 </r>
       <r>   -5.0973    1.0000 </r>
       <r>   -5.0920    1.0000 </r>
       <r>   -5.0431    1.0000 </r>
       <r>   -4.5972    1.0000 </r>
       <r>   -4.2913    1.0000 </r>
       <r>   -4.2711    1.0000 </r>
       <r>   -4.2501    1.0000 </r>
       <r>   -4.1211    1.0000 </r>
       <r>   -4.0401    1.0000 </r>
       <r>   -3.9969    1.0000 </r>
       <r>   -3.9494    1.0000 </r>
       <r>   -3.8578    1.0000 </r>
       <r>   -3.4689    1.0000 </r>
       <r>   -3.3956    1.0000 </r>
       <r>   -3.3839    1.0000 </r>
       <r>   -3.3271    1.0000 </r>
       <r>   -3.2211    1.0000 </r>
       <r>   -2.5918    1.0000 </r>
       <r>   -2.5336    1.0000 </r>
       <r>   -2.4956    1.0000 </r>
       <r>   -2.4444    1.0000 </r>
       <r>   -2.3475    1.0000 </r>
       <r>   -2.2624    1.0000 </r>
       <r>   -2.2156    1.0000 </r>
       <r>   -2.1454    1.0000 </r>
       <r>   -0.1131    1.0000 </r>
       <r>   -0.0288    1.0000 </r>
       <r>   -0.0023    1.0000 </r>
       <r>    0.0471    1.0000 </r>
       <r>    0.3631    1.0000 </r>
       <r>    0.3783    1.0000 </r>
       <r>    0.7102    1.0000 </r>
       <r>    0.7389    1.0000 </r>
       <r>    0.9884    1.0000 </r>
       <r>    1.0179    1.0000 </r>
       <r>    1.0465    1.0000 </r>
       <r>    1.0680    1.0000 </r>
       <r>    1.0791    1.0000 </r>
       <r>    1.1059    1.0000 </r>
       <r>    1.1311    1.0000 </r>
       <r>    1.1877    1.0000 </r>
       <r>    1.2510    1.0000 </r>
       <r>    1.3686    1.0000 </r>
       <r>    1.3983    1.0000 </r>
       <r>    1.4255    1.0000 </r>
       <r>    1.4467    1.0000 </r>
       <r>    2.6783    1.0000 </r>
       <r>    2.6968    1.0000 </r>
       <r>    2.7082    1.0000 </r>
       <r>    2.7416    1.0000 </r>
       <r>    2.9002    1.0000 </r>
       <r>    2.9118    1.0000 </r>
       <r>    2.9501    1.0000 </r>
       <r>    2.9574    1.0000 </r>
       <r>    2.9831    1.0000 </r>
       <r>    3.0172    1.0000 </r>
       <r>    3.0445    1.0000 </r>
       <r>    3.0620    1.0000 </r>
       <r>    3.0746    1.0000 </r>
       <r>    3.5211    1.0000 </r>
       <r>    3.5252    1.0000 </r>
       <r>    3.6481    1.0000 </r>
       <r>    3.6592    1.0000 </r>
       <r>    3.9845    1.0000 </r>
       <r>    4.0066    1.0000 </r>
       <r>    4.0508    1.0000 </r>
       <r>    4.0673    1.0000 </r>
       <r>    4.3353    1.0000 </r>
       <r>    4.3508    1.0000 </r>
       <r>    4.3846    1.0000 </r>
       <r>    4.3952    1.0000 </r>
       <r>    4.4072    1.0000 </r>
       <r>    4.4418    1.0000 </r>
       <r>    4.4636    1.0000 </r>
       <r>    4.4825    1.0000 </r>
       <r>    4.6097    1.0000 </r>
       <r>    4.6367    1.0000 </r>
       <r>    4.6660    1.0000 </r>
       <r>    4.7197    1.0000 </r>
       <r>    4.7431    1.0000 </r>
       <r>    4.7934    1.0000 </r>
       <r>    4.8418    1.0000 </r>
       <r>    4.9040    1.0000 </r>
       <r>    4.9833    1.0000 </r>
       <r>    4.9947    1.0000 </r>
       <r>    5.3940    1.0000 </r>
       <r>    5.4062    1.0000 </r>
       <r>    5.5521    1.0000 </r>
       <r>    5.6023    1.0000 </r>
       <r>    5.6299    1.0000 </r>
       <r>    5.6864    1.0000 </r>
       <r>    5.8434    1.0000 </r>
       <r>    5.8842    1.0000 </r>
       <r>    5.9173    1.0000 </r>
       <r>    5.9249    1.0000 </r>
       <r>    6.1882    1.0000 </r>
       <r>    6.2078    1.0000 </r>
       <r>    6.2543    1.0000 </r>
       <r>    6.3111    1.0000 </r>
       <r>    6.3562    1.0000 </r>
       <r>    6.4342    1.0000 </r>
       <r>    6.4579    1.0000 </r>
       <r>    6.4910    1.0000 </r>
       <r>    6.5475    1.0000 </r>
       <r>    6.7447    1.0000 </r>
       <r>    6.8013    1.0000 </r>
       <r>    6.8139    1.0000 </r>
       <r>    6.8306    1.0000 </r>
       <r>    6.8462    1.0000 </r>
       <r>    6.8889    1.0000 </r>
       <r>    6.9093    1.0000 </r>
       <r>    6.9249    1.0000 </r>
       <r>    6.9432    1.0000 </r>
       <r>    6.9571    1.0000 </r>
       <r>    6.9802    1.0000 </r>
       <r>    6.9958    1.0000 </r>
       <r>    7.0186    1.0000 </r>
       <r>    7.0384    1.0000 </r>
       <r>    7.4672    1.0000 </r>
       <r>    7.6785    1.0021 </r>
       <r>    7.6919    1.0028 </r>
       <r>    9.6726   -0.0000 </r>
       <r>   10.1663   -0.0000 </r>
       <r>   10.2494   -0.0000 </r>
       <r>   10.6200   -0.0000 </r>
       <r>   11.9331   -0.0000 </r>
       <r>   11.9968   -0.0000 </r>
       <r>   12.4766   -0.0000 </r>
       <r>   12.5850   -0.0000 </r>
       <r>   12.6197   -0.0000 </r>
       <r>   12.6680   -0.0000 </r>
       <r>   12.7046   -0.0000 </r>
       <r>   12.9003   -0.0000 </r>
       <r>   12.9537   -0.0000 </r>
       <r>   12.9726   -0.0000 </r>
       <r>   13.0101   -0.0000 </r>
       <r>   13.0306   -0.0000 </r>
       <r>   13.0576   -0.0000 </r>
       <r>   13.0791   -0.0000 </r>
       <r>   13.1100   -0.0000 </r>
       <r>   13.1139   -0.0000 </r>
       <r>   13.1712   -0.0000 </r>
       <r>   13.2001   -0.0000 </r>
       <r>   13.4945   -0.0000 </r>
       <r>   13.5882   -0.0000 </r>
       <r>   13.6008   -0.0000 </r>
       <r>   13.6422    0.0000 </r>
       <r>   13.6622    0.0000 </r>
       <r>   13.6793    0.0000 </r>
       <r>   13.6857    0.0000 </r>
       <r>   13.7159    0.0000 </r>
       <r>   13.7300    0.0000 </r>
       <r>   13.9071    0.0000 </r>
       <r>   13.9680    0.0000 </r>
       <r>   13.9976    0.0000 </r>
       <r>   14.0427    0.0000 </r>
       <r>   14.4800    0.0000 </r>
       <r>   14.7815    0.0000 </r>
       <r>   14.8355    0.0000 </r>
       <r>   14.8457    0.0000 </r>
       <r>   14.8832    0.0000 </r>
      </set>
      <set comment="kpoint 5">
       <r>   -6.9841    1.0000 </r>
       <r>   -6.4809    1.0000 </r>
       <r>   -6.4257    1.0000 </r>
       <r>   -5.9380    1.0000 </r>
       <r>   -5.4741    1.0000 </r>
       <r>   -5.3914    1.0000 </r>
       <r>   -5.0436    1.0000 </r>
       <r>   -4.9795    1.0000 </r>
       <r>   -4.9506    1.0000 </r>
       <r>   -4.8603    1.0000 </r>
       <r>   -4.5888    1.0000 </r>
       <r>   -4.5103    1.0000 </r>
       <r>   -4.4637    1.0000 </r>
       <r>   -4.4053    1.0000 </r>
       <r>   -4.0486    1.0000 </r>
       <r>   -3.9745    1.0000 </r>
       <r>   -3.5714    1.0000 </r>
       <r>   -3.4731    1.0000 </r>
       <r>   -3.4554    1.0000 </r>
       <r>   -3.3979    1.0000 </r>
       <r>   -3.3802    1.0000 </r>
       <r>   -3.2870    1.0000 </r>
       <r>   -3.1725    1.0000 </r>
       <r>   -3.0937    1.0000 </r>
       <r>   -2.8755    1.0000 </r>
       <r>   -2.8152    1.0000 </r>
       <r>   -2.7954    1.0000 </r>
       <r>   -2.7021    1.0000 </r>
       <r>   -2.6754    1.0000 </r>
       <r>   -2.3673    1.0000 </r>
       <r>   -2.2803    1.0000 </r>
       <r>   -2.2516    1.0000 </r>
       <r>   -0.2091    1.0000 </r>
       <r>   -0.1316    1.0000 </r>
       <r>    0.4779    1.0000 </r>
       <r>    0.4918    1.0000 </r>
       <r>    0.5313    1.0000 </r>
       <r>    0.5628    1.0000 </r>
       <r>    0.6143    1.0000 </r>
       <r>    0.6483    1.0000 </r>
       <r>    0.6882    1.0000 </r>
       <r>    0.7778    1.0000 </r>
       <r>    0.8014    1.0000 </r>
       <r>    0.8178    1.0000 </r>
       <r>    0.8772    1.0000 </r>
       <r>    0.9901    1.0000 </r>
       <r>    1.1824    1.0000 </r>
       <r>    1.2253    1.0000 </r>
       <r>    1.2607    1.0000 </r>
       <r>    1.2960    1.0000 </r>
       <r>    1.9903    1.0000 </r>
       <r>    2.0139    1.0000 </r>
       <r>    2.0377    1.0000 </r>
       <r>    2.0723    1.0000 </r>
       <r>    2.0883    1.0000 </r>
       <r>    2.1593    1.0000 </r>
       <r>    2.4095    1.0000 </r>
       <r>    2.5560    1.0000 </r>
       <r>    2.5935    1.0000 </r>
       <r>    2.6627    1.0000 </r>
       <r>    2.7426    1.0000 </r>
       <r>    3.1962    1.0000 </r>
       <r>    3.2327    1.0000 </r>
       <r>    3.2810    1.0000 </r>
       <r>    3.3038    1.0000 </r>
       <r>    3.3756    1.0000 </r>
       <r>    3.4924    1.0000 </r>
       <r>    3.5472    1.0000 </r>
       <r>    3.9014    1.0000 </r>
       <r>    3.9325    1.0000 </r>
       <r>    3.9982    1.0000 </r>
       <r>    4.0380    1.0000 </r>
       <r>    4.0550    1.0000 </r>
       <r>    4.0995    1.0000 </r>
       <r>    4.1342    1.0000 </r>
       <r>    4.2873    1.0000 </r>
       <r>    4.3266    1.0000 </r>
       <r>    4.4740    1.0000 </r>
       <r>    4.4904    1.0000 </r>
       <r>    4.6344    1.0000 </r>
       <r>    4.7030    1.0000 </r>
       <r>    4.8545    1.0000 </r>
       <r>    4.8811    1.0000 </r>
       <r>    4.9093    1.0000 </r>
       <r>    4.9328    1.0000 </r>
       <r>    4.9393    1.0000 </r>
       <r>    4.9771    1.0000 </r>
       <r>    5.0976    1.0000 </r>
       <r>    5.2640    1.0000 </r>
       <r>    5.3022    1.0000 </r>
       <r>    5.3783    1.0000 </r>
       <r>    5.4092    1.0000 </r>
       <r>    5.4320    1.0000 </r>
       <r>    5.5003    1.0000 </r>
       <r>    5.5242    1.0000 </r>
       <r>    5.5484    1.0000 </r>
       <r>    5.5728    1.0000 </r>
       <r>    5.6085    1.0000 </r>
       <r>    5.6343    1.0000 </r>
       <r>    5.6691    1.0000 </r>
       <r>    5.6989    1.0000 </r>
       <r>    5.8356    1.0000 </r>
       <r>    5.9739    1.0000 </r>
       <r>    6.0024    1.0000 </r>
       <r>    6.0426    1.0000 </r>
       <r>    6.0625    1.0000 </r>
       <r>    6.1942    1.0000 </r>
       <r>    6.2078    1.0000 </r>
       <r>    6.2634    1.0000 </r>
       <r>    6.3173    1.0000 </r>
       <r>    6.3882    1.0000 </r>
       <r>    6.4369    1.0000 </r>
       <r>    6.4692    1.0000 </r>
       <r>    6.5122    1.0000 </r>
       <r>    6.5684    1.0000 </r>
       <r>    6.6342    1.0000 </r>
       <r>    6.6784    1.0000 </r>
       <r>    6.7062    1.0000 </r>
       <r>    6.7481    1.0000 </r>
       <r>    6.8371    1.0000 </r>
       <r>    6.8621    1.0000 </r>
       <r>    6.9186    1.0000 </r>
       <r>    6.9365    1.0000 </r>
       <r>    7.3046    1.0000 </r>
       <r>    7.4544    1.0000 </r>
       <r>    7.5484    1.0001 </r>
       <r>    7.6318    1.0008 </r>
       <r>    7.9617    1.0178 </r>
       <r>   10.3784   -0.0000 </r>
       <r>   10.4789   -0.0000 </r>
       <r>   10.5462   -0.0000 </r>
       <r>   11.3004   -0.0000 </r>
       <r>   11.3577   -0.0000 </r>
       <r>   11.6240   -0.0000 </r>
       <r>   11.6889   -0.0000 </r>
       <r>   11.8024   -0.0000 </r>
       <r>   12.1824   -0.0000 </r>
       <r>   12.2137   -0.0000 </r>
       <r>   12.7814   -0.0000 </r>
       <r>   12.8456   -0.0000 </r>
       <r>   12.8771   -0.0000 </r>
       <r>   12.9078   -0.0000 </r>
       <r>   13.0330   -0.0000 </r>
       <r>   13.1027   -0.0000 </r>
       <r>   13.1195   -0.0000 </r>
       <r>   13.1599   -0.0000 </r>
       <r>   13.1872   -0.0000 </r>
       <r>   13.2337   -0.0000 </r>
       <r>   13.2558   -0.0000 </r>
       <r>   13.3040   -0.0000 </r>
       <r>   13.5065   -0.0000 </r>
       <r>   13.5569   -0.0000 </r>
       <r>   13.5942   -0.0000 </r>
       <r>   13.6327    0.0000 </r>
       <r>   13.6875    0.0000 </r>
       <r>   13.7565    0.0000 </r>
       <r>   13.7688    0.0000 </r>
       <r>   13.8269    0.0000 </r>
       <r>   13.8740    0.0000 </r>
       <r>   13.8999    0.0000 </r>
       <r>   13.9846    0.0000 </r>
       <r>   14.0765    0.0000 </r>
       <r>   14.1253    0.0000 </r>
       <r>   14.6488    0.0000 </r>
       <r>   14.7124    0.0000 </r>
       <r>   14.7739    0.0000 </r>
       <r>   14.9342    0.0000 </r>
       <r>   15.0302    0.0000 </r>
      </set>
      <set comment="kpoint 6">
       <r>   -6.9845    1.0000 </r>
       <r>   -6.4763    1.0000 </r>
       <r>   -6.4292    1.0000 </r>
       <r>   -5.9394    1.0000 </r>
       <r>   -5.4799    1.0000 </r>
       <r>   -5.3839    1.0000 </r>
       <r>   -5.0410    1.0000 </r>
       <r>   -4.9838    1.0000 </r>
       <r>   -4.9262    1.0000 </r>
       <r>   -4.8896    1.0000 </r>
       <r>   -4.6003    1.0000 </r>
       <r>   -4.4975    1.0000 </r>
       <r>   -4.4495    1.0000 </r>
       <r>   -4.4100    1.0000 </r>
       <r>   -4.0489    1.0000 </r>
       <r>   -3.9791    1.0000 </r>
       <r>   -3.5709    1.0000 </r>
       <r>   -3.4723    1.0000 </r>
       <r>   -3.4688    1.0000 </r>
       <r>   -3.4121    1.0000 </r>
       <r>   -3.3594    1.0000 </r>
       <r>   -3.2944    1.0000 </r>
       <r>   -3.1601    1.0000 </r>
       <r>   -3.0847    1.0000 </r>
       <r>   -2.8780    1.0000 </r>
       <r>   -2.8233    1.0000 </r>
       <r>   -2.7868    1.0000 </r>
       <r>   -2.7270    1.0000 </r>
       <r>   -2.6571    1.0000 </r>
       <r>   -2.3320    1.0000 </r>
       <r>   -2.3169    1.0000 </r>
       <r>   -2.2497    1.0000 </r>
       <r>   -0.2233    1.0000 </r>
       <r>   -0.1311    1.0000 </r>
       <r>    0.4763    1.0000 </r>
       <r>    0.4886    1.0000 </r>
       <r>    0.5424    1.0000 </r>
       <r>    0.5868    1.0000 </r>
       <r>    0.6102    1.0000 </r>
       <r>    0.6271    1.0000 </r>
       <r>    0.6957    1.0000 </r>
       <r>    0.7644    1.0000 </r>
       <r>    0.8066    1.0000 </r>
       <r>    0.8233    1.0000 </r>
       <r>    0.8865    1.0000 </r>
       <r>    0.9954    1.0000 </r>
       <r>    1.1909    1.0000 </r>
       <r>    1.2361    1.0000 </r>
       <r>    1.2622    1.0000 </r>
       <r>    1.2787    1.0000 </r>
       <r>    1.9917    1.0000 </r>
       <r>    2.0162    1.0000 </r>
       <r>    2.0251    1.0000 </r>
       <r>    2.0576    1.0000 </r>
       <r>    2.1040    1.0000 </r>
       <r>    2.1391    1.0000 </r>
       <r>    2.4114    1.0000 </r>
       <r>    2.5554    1.0000 </r>
       <r>    2.5823    1.0000 </r>
       <r>    2.6920    1.0000 </r>
       <r>    2.7173    1.0000 </r>
       <r>    3.2004    1.0000 </r>
       <r>    3.2673    1.0000 </r>
       <r>    3.2793    1.0000 </r>
       <r>    3.2999    1.0000 </r>
       <r>    3.3804    1.0000 </r>
       <r>    3.4939    1.0000 </r>
       <r>    3.5437    1.0000 </r>
       <r>    3.9112    1.0000 </r>
       <r>    3.9201    1.0000 </r>
       <r>    3.9785    1.0000 </r>
       <r>    3.9971    1.0000 </r>
       <r>    4.0943    1.0000 </r>
       <r>    4.1019    1.0000 </r>
       <r>    4.1367    1.0000 </r>
       <r>    4.2875    1.0000 </r>
       <r>    4.3071    1.0000 </r>
[...]
      </set>
     </set>
    </set>
   </array>
  </eigenvalues>
  <separator name="orbital magnetization" >
   <v name="MAGDIPOLOUT">      0.00000000      0.00000000      0.00000000</v>
  </separator>
  <dos>
   <i name="efermi">      8.14986062 </i>
   <total>
    <array>
     <dimension dim="1">gridpoints</dimension>
     <dimension dim="2">spin</dimension>
     <field>energy</field>
     <field>total</field>
     <field>integrated</field>
     <set>
      <set comment="spin 1">
       <r>    -9.3401     0.0000     0.0000 </r>
       <r>    -9.2508     0.0000     0.0000 </r>
       <r>    -9.1614     0.0000     0.0000 </r>
       <r>    -9.0720     0.0000     0.0000 </r>
       <r>    -8.9826    -0.0000    -0.0000 </r>
       <r>    -8.8933    -0.0000    -0.0000 </r>
       <r>    -8.8039    -0.0000    -0.0000 </r>
       <r>    -8.7145    -0.0000    -0.0000 </r>
       <r>    -8.6251    -0.0000    -0.0000 </r>
       <r>    -8.5358    -0.0000    -0.0000 </r>
       <r>    -8.4464    -0.0000    -0.0000 </r>
       <r>    -8.3570    -0.0000    -0.0000 </r>
       <r>    -8.2676    -0.0000    -0.0000 </r>
       <r>    -8.1783    -0.0000    -0.0000 </r>
       <r>    -8.0889    -0.0000    -0.0000 </r>
       <r>    -7.9995    -0.0000    -0.0000 </r>
       <r>    -7.9101    -0.0002    -0.0000 </r>
       <r>    -7.8208    -0.0014    -0.0001 </r>
       <r>    -7.7314    -0.0071    -0.0008 </r>
       <r>    -7.6420    -0.0229    -0.0028 </r>
       <r>    -7.5526    -0.0416    -0.0065 </r>
       <r>    -7.4633    -0.0199    -0.0083 </r>
       <r>    -7.3739     0.1446     0.0046 </r>
       <r>    -7.2845     0.6265     0.0606 </r>
       <r>    -7.1951     1.5476     0.1989 </r>
       <r>    -7.1058     2.8012     0.4493 </r>
       <r>    -7.0164     4.0226     0.8088 </r>
       <r>    -6.9270     4.5667     1.2169 </r>
       <r>    -6.8376     4.0851     1.5821 </r>
       <r>    -6.7482     3.1105     1.8601 </r>
       <r>    -6.6589     2.7259     2.1037 </r>
       <r>    -6.5695     4.0883     2.4691 </r>
       <r>    -6.4801     7.1776     3.1106 </r>
       <r>    -6.3907     9.9967     4.0040 </r>
       <r>    -6.3014    10.3550     4.9295 </r>
       <r>    -6.2120     7.6913     5.6169 </r>
       <r>    -6.1226     3.7524     5.9523 </r>
       <r>    -6.0332     1.8868     6.1209 </r>
       <r>    -5.9439     3.6225     6.4447 </r>
       <r>    -5.8545     7.3290     7.0997 </r>
       <r>    -5.7651    10.5204     8.0400 </r>
       <r>    -5.6757    11.7044     9.0861 </r>
       <r>    -5.5864    11.3770    10.1029 </r>
       <r>    -5.4970    10.8654    11.0740 </r>
       <r>    -5.4076     9.9079    11.9595 </r>
       <r>    -5.3182     7.8581    12.6619 </r>
       <r>    -5.2289     6.4078    13.2346 </r>
       <r>    -5.1395     8.4198    13.9871 </r>
       <r>    -5.0501    13.5591    15.1989 </r>
       <r>    -4.9607    16.7304    16.6942 </r>
       <r>    -4.8714    13.5041    17.9012 </r>
       <r>    -4.7820     6.5298    18.4848 </r>
       <r>    -4.6926     2.9611    18.7494 </r>
       <r>    -4.6032     5.9678    19.2828 </r>
       <r>    -4.5139    12.3851    20.3897 </r>
       <r>    -4.4245    17.8588    21.9859 </r>
       <r>    -4.3351    19.9401    23.7680 </r>
       <r>    -4.2457    17.6614    25.3465 </r>
       <r>    -4.1564    14.1979    26.6155 </r>
       <r>    -4.0670    15.9746    28.0432 </r>
       <r>    -3.9776    22.3353    30.0394 </r>
       <r>    -3.8882    24.2865    32.2100 </r>
       <r>    -3.7989    18.3878    33.8535 </r>
       <r>    -3.7095    11.5780    34.8883 </r>
       <r>    -3.6201    10.6103    35.8366 </r>
       <r>    -3.5307    15.4822    37.2203 </r>
       <r>    -3.4414    21.6816    39.1581 </r>
       <r>    -3.3520    23.4838    41.2570 </r>
       <r>    -3.2626    19.6321    43.0116 </r>
       <r>    -3.1732    15.8231    44.4258 </r>
       <r>    -3.0839    16.3473    45.8868 </r>
       <r>    -2.9945    19.8460    47.6606 </r>
       <r>    -2.9051    24.8594    49.8824 </r>
       <r>    -2.8157    29.2305    52.4949 </r>
       <r>    -2.7264    27.8391    54.9830 </r>
       <r>    -2.6370    19.8369    56.7560 </r>
       <r>    -2.5476    11.7547    57.8066 </r>
       <r>    -2.4582     9.5620    58.6612 </r>
       <r>    -2.3688    13.1115    59.8330 </r>
       <r>    -2.2795    17.1620    61.3669 </r>
       <r>    -2.1901    16.0845    62.8044 </r>
       <r>    -2.1007     9.9955    63.6978 </r>
       <r>    -2.0113     3.7532    64.0332 </r>
       <r>    -1.9220     0.4463    64.0731 </r>
       <r>    -1.8326    -0.3955    64.0378 </r>
       <r>    -1.7432    -0.2906    64.0118 </r>
       <r>    -1.6538    -0.1044    64.0025 </r>
       <r>    -1.5645    -0.0238    64.0004 </r>
       <r>    -1.4751    -0.0036    64.0000 </r>
       <r>    -1.3857    -0.0004    64.0000 </r>
       <r>    -1.2963    -0.0000    64.0000 </r>
       <r>    -1.2070    -0.0000    64.0000 </r>
       <r>    -1.1176    -0.0004    64.0000 </r>
       <r>    -1.0282    -0.0029    63.9997 </r>
       <r>    -0.9388    -0.0134    63.9985 </r>
       <r>    -0.8495    -0.0347    63.9954 </r>
       <r>    -0.7601    -0.0284    63.9929 </r>
       <r>    -0.6707     0.1107    64.0027 </r>
       <r>    -0.5813     0.4081    64.0392 </r>
       <r>    -0.4920     0.6150    64.0942 </r>
       <r>    -0.4026     0.7240    64.1589 </r>
       <r>    -0.3132     1.9374    64.3321 </r>
       <r>    -0.2238     5.4303    64.8174 </r>
       <r>    -0.1345     9.4260    65.6598 </r>
       <r>    -0.0451    10.4956    66.5979 </r>
       <r>     0.0443     8.2464    67.3349 </r>
       <r>     0.1337     6.0934    67.8795 </r>
       <r>     0.2230     7.5782    68.5568 </r>
       <r>     0.3124    12.8472    69.7051 </r>
       <r>     0.4018    19.0486    71.4075 </r>
       <r>     0.4912    23.2530    73.4858 </r>
       <r>     0.5805    24.5590    75.6808 </r>
       <r>     0.6699    25.2806    77.9402 </r>
       <r>     0.7593    28.5662    80.4934 </r>
       <r>     0.8487    32.3455    83.3843 </r>
       <r>     0.9380    31.5015    86.1997 </r>
       <r>     1.0274    28.1345    88.7143 </r>
       <r>     1.1168    29.7697    91.3749 </r>
       <r>     1.2062    36.6753    94.6528 </r>
       <r>     1.2955    39.4680    98.1803 </r>
       <r>     1.3849    31.2539   100.9736 </r>
       <r>     1.4743    16.6031   102.4575 </r>
       <r>     1.5637     4.7097   102.8785 </r>
       <r>     1.6530    -0.6544   102.8200 </r>
       <r>     1.7424    -1.1978   102.7129 </r>
       <r>     1.8318     1.3647   102.8349 </r>
       <r>     1.9212     7.9788   103.5480 </r>
       <r>     2.0106    18.3767   105.1904 </r>
       <r>     2.0999    26.0837   107.5217 </r>
       <r>     2.1893    24.1000   109.6756 </r>
       <r>     2.2787    14.8240   111.0005 </r>
       <r>     2.3681     6.9168   111.6187 </r>
       <r>     2.4574     5.3755   112.0991 </r>
       <r>     2.5468     9.5997   112.9571 </r>
       <r>     2.6362    15.6857   114.3590 </r>
       <r>     2.7256    17.8518   115.9545 </r>
       <r>     2.8149    14.6621   117.2650 </r>
       <r>     2.9043    12.4695   118.3794 </r>
       <r>     2.9937    15.6906   119.7818 </r>
       <r>     3.0831    21.2504   121.6811 </r>
       <r>     3.1724    26.6575   124.0636 </r>
       <r>     3.2618    31.6956   126.8964 </r>
       <r>     3.3512    32.9534   129.8416 </r>
       <r>     3.4406    29.5430   132.4820 </r>
       <r>     3.5299    26.5347   134.8536 </r>
       <r>     3.6193    24.4759   137.0411 </r>
       <r>     3.7087    19.3995   138.7750 </r>
       <r>     3.7981    13.2834   139.9622 </r>
       <r>     3.8874    13.1795   141.1401 </r>
       <r>     3.9768    20.1190   142.9383 </r>
       <r>     4.0662    25.1561   145.1866 </r>
       <r>     4.1556    21.9781   147.1509 </r>
       <r>     4.2449    17.9373   148.7541 </r>
       <r>     4.3343    22.2901   150.7462 </r>
       <r>     4.4237    31.1901   153.5339 </r>
       <r>     4.5131    36.2431   156.7731 </r>
       <r>     4.6024    36.3455   160.0215 </r>
       <r>     4.6918    34.3251   163.0893 </r>
       <r>     4.7812    33.6539   166.0972 </r>
       <r>     4.8706    35.6949   169.2874 </r>
       <r>     4.9599    36.0270   172.5074 </r>
       <r>     5.0493    32.5740   175.4187 </r>
       <r>     5.1387    30.1374   178.1122 </r>
       <r>     5.2281    30.5246   180.8404 </r>
       <r>     5.3174    30.5383   183.5698 </r>
       <r>     5.4068    30.1885   186.2679 </r>
       <r>     5.4962    33.6602   189.2763 </r>
       <r>     5.5856    40.7148   192.9152 </r>
       <r>     5.6749    43.4995   196.8030 </r>
       <r>     5.7643    38.9139   200.2809 </r>
       <r>     5.8537    34.4804   203.3626 </r>
       <r>     5.9431    33.8701   206.3898 </r>
       <r>     6.0324    32.0545   209.2547 </r>
       <r>     6.1218    28.5129   211.8030 </r>
       <r>     6.2112    28.7098   214.3690 </r>
       <r>     6.3006    32.5361   217.2769 </r>
       <r>     6.3900    35.5550   220.4546 </r>
       <r>     6.4793    35.3899   223.6176 </r>
       <r>     6.5687    30.8746   226.3771 </r>
       <r>     6.6581    25.6612   228.6705 </r>
       <r>     6.7475    27.1799   231.0998 </r>
       <r>     6.8368    35.9151   234.3097 </r>
       <r>     6.9262    42.7187   238.1277 </r>
       <r>     7.0156    38.5022   241.5689 </r>
       <r>     7.1050    25.2543   243.8260 </r>
       <r>     7.1943    13.9120   245.0694 </r>
       <r>     7.2837    11.1536   246.0662 </r>
       <r>     7.3731    14.5888   247.3701 </r>
       <r>     7.4625    19.2432   249.0900 </r>
       <r>     7.5518    21.6741   251.0271 </r>
       <r>     7.6412    20.0986   252.8234 </r>
       <r>     7.7306    14.7502   254.1417 </r>
       <r>     7.8200     8.2240   254.8768 </r>
       <r>     7.9093     4.3905   255.2692 </r>
       <r>     7.9987     3.7825   255.6072 </r>
       <r>     8.0881     3.1948   255.8928 </r>
       <r>     8.1775     1.4568   256.0230 </r>
       <r>     8.2668     0.1077   256.0326 </r>
       <r>     8.3562    -0.2151   256.0134 </r>
       <r>     8.4456    -0.1150   256.0031 </r>
       <r>     8.5350    -0.0294   256.0004 </r>
       <r>     8.6243    -0.0045   256.0000 </r>
       <r>     8.7137    -0.0007   256.0000 </r>
       <r>     8.8031    -0.0022   255.9998 </r>
       <r>     8.8925    -0.0096   255.9989 </r>
       <r>     8.9818    -0.0231   255.9969 </r>
       <r>     9.0712    -0.0126   255.9957 </r>
       <r>     9.1606     0.0948   256.0042 </r>
       <r>     9.2500     0.3264   256.0334 </r>
       <r>     9.3393     0.5600   256.0834 </r>
       <r>     9.4287     0.6565   256.1421 </r>
       <r>     9.5181     0.8031   256.2139 </r>
       <r>     9.6075     1.3240   256.3322 </r>
       <r>     9.6968     1.8010   256.4932 </r>
       <r>     9.7862     1.4223   256.6203 </r>
       <r>     9.8756     0.4381   256.6595 </r>
       <r>     9.9650    -0.1273   256.6481 </r>
       <r>    10.0543     0.3485   256.6792 </r>
       <r>    10.1437     1.8106   256.8411 </r>
       <r>    10.2331     3.6293   257.1654 </r>
       <r>    10.3225     5.4475   257.6523 </r>
       <r>    10.4118     7.6558   258.3365 </r>
       <r>    10.5012    10.0952   259.2388 </r>
       <r>    10.5906    11.4694   260.2639 </r>
       <r>    10.6800    10.7727   261.2267 </r>
       <r>    10.7694     8.1734   261.9572 </r>
       <r>    10.8587     4.5451   262.3634 </r>
       <r>    10.9481     1.2659   262.4766 </r>
       <r>    11.0375    -0.4621   262.4353 </r>
       <r>    11.1269    -0.2490   262.4130 </r>
       <r>    11.2162     2.0491   262.5962 </r>
       <r>    11.3056     5.4915   263.0870 </r>
       <r>    11.3950     7.8515   263.7887 </r>
       <r>    11.4844     9.0400   264.5966 </r>
       <r>    11.5737    10.7944   265.5614 </r>
       <r>    11.6631    12.6374   266.6909 </r>
       <r>    11.7525    14.1242   267.9532 </r>
       <r>    11.8419    17.0109   269.4736 </r>
       <r>    11.9312    20.5842   271.3133 </r>
       <r>    12.0206    21.5060   273.2354 </r>
       <r>    12.1100    18.9471   274.9288 </r>
       <r>    12.1994    14.2579   276.2031 </r>
       <r>    12.2887     8.4107   276.9548 </r>
       <r>    12.3781     3.8403   277.2981 </r>
       <r>    12.4675     4.5298   277.7029 </r>
       <r>    12.5569    11.0867   278.6938 </r>
       <r>    12.6462    19.2919   280.4180 </r>
       <r>    12.7356    25.1539   282.6662 </r>
       <r>    12.8250    28.0926   285.1769 </r>
       <r>    12.9144    29.1834   287.7852 </r>
       <r>    13.0037    30.6707   290.5264 </r>
       <r>    13.0931    33.9271   293.5587 </r>
       <r>    13.1825    34.7941   296.6684 </r>
       <r>    13.2719    28.2082   299.1896 </r>
       <r>    13.3612    17.7899   300.7795 </r>
       <r>    13.4506    14.0237   302.0329 </r>
       <r>    13.5400    21.6040   303.9638 </r>
       <r>    13.6294    32.5102   306.8694 </r>
       <r>    13.7187    35.7616   310.0656 </r>
       <r>    13.8081    30.8865   312.8261 </r>
       <r>    13.8975    26.5062   315.1951 </r>
       <r>    13.9869    27.9607   317.6941 </r>
       <r>    14.0762    31.4148   320.5018 </r>
       <r>    14.1656    30.0580   323.1883 </r>
       <r>    14.2550    22.0439   325.1584 </r>
       <r>    14.3444    11.4027   326.1776 </r>
       <r>    14.4337     3.8044   326.5176 </r>
       <r>    14.5231     2.7324   326.7618 </r>
       <r>    14.6125     8.4583   327.5178 </r>
       <r>    14.7019    16.9726   329.0347 </r>
       <r>    14.7912    21.2918   330.9377 </r>
       <r>    14.8806    18.8530   332.6227 </r>
       <r>    14.9700    13.3409   333.8150 </r>
       <r>    15.0594     7.8584   334.5174 </r>
       <r>    15.1488     3.1995   334.8033 </r>
       <r>    15.2381     0.7574   334.8710 </r>
       <r>    15.3275     1.5619   335.0106 </r>
       <r>    15.4169     3.8688   335.3564 </r>
       <r>    15.5063     4.4498   335.7541 </r>
       <r>    15.5956     2.6084   335.9872 </r>
       <r>    15.6850     0.5754   336.0387 </r>
       <r>    15.7744    -0.1945   336.0213 </r>
       <r>    15.8638    -0.1729   336.0058 </r>
       <r>    15.9531    -0.0543   336.0010 </r>
       <r>    16.0425    -0.0096   336.0001 </r>
       <r>    16.1319    -0.0011   336.0000 </r>
       <r>    16.2213    -0.0001   336.0000 </r>
       <r>    16.3106    -0.0000   336.0000 </r>
       <r>    16.4000    -0.0000   336.0000 </r>
       <r>    16.4894    -0.0000   336.0000 </r>
       <r>    16.5788    -0.0000   336.0000 </r>
       <r>    16.6681    -0.0000   336.0000 </r>
       <r>    16.7575    -0.0000   336.0000 </r>
       <r>    16.8469     0.0000   336.0000 </r>
       <r>    16.9363     0.0000   336.0000 </r>
       <r>    17.0256     0.0000   336.0000 </r>
       <r>    17.1150     0.0000   336.0000 </r>
       <r>    17.2044     0.0000   336.0000 </r>
       <r>    17.2938     0.0000   336.0000 </r>
       <r>    17.3831     0.0000   336.0000 </r>
       <r>    17.4725     0.0000   336.0000 </r>
      </set>
     </set>
    </array>
   </total>
  </dos>
 </calculation>
 <structure name="finalpos" >
  <crystal>
   <varray name="basis" >
    <v>       8.74331558       0.00000000       0.00000000 </v>
    <v>       0.00000000       8.74331558       0.00000000 </v>
    <v>       0.00000000       0.00000000       8.74331558 </v>
   </varray>
   <i name="volume">    668.38771987 </i>
   <varray name="rec_basis" >
    <v>       0.11437309       0.00000000       0.00000000 </v>
    <v>       0.00000000       0.11437309       0.00000000 </v>
    <v>       0.00000000       0.00000000       0.11437309 </v>
   </varray>
  </crystal>
  <varray name="positions" >
   <v>       0.12604515       0.12140744       0.12607338 </v>
   <v>       0.12587171       0.37423485       0.37423827 </v>
   <v>       0.37718488       0.12210655       0.37818455 </v>
   <v>       0.37867848       0.37445249       0.12792779 </v>
   <v>       0.12481059       0.12390675       0.62587416 </v>
   <v>       0.12246695       0.37623345       0.87776895 </v>
   <v>       0.37405085       0.12524694       0.87257832 </v>
   <v>       0.37372115       0.37369231       0.62202686 </v>
   <v>       0.12385418       0.62059623       0.12365093 </v>
   <v>       0.12309843       0.87843529       0.37746405 </v>
   <v>       0.37595787       0.62302057       0.37239400 </v>
   <v>       0.37417627       0.87413196       0.12336687 </v>
   <v>       0.12444925       0.62073880       0.62341108 </v>
   <v>       0.12519661       0.87714225       0.87148504 </v>
   <v>       0.37509284       0.62434430       0.87352731 </v>
   <v>       0.38097343       0.87456084       0.62422759 </v>
   <v>       0.62208558       0.12554567       0.12397212 </v>
   <v>       0.62843960       0.37936310       0.37393340 </v>
   <v>       0.88001265       0.12224849       0.37430774 </v>
   <v>       0.87416511       0.37177894       0.12584657 </v>
   <v>       0.62348831       0.12324550       0.62806899 </v>
   <v>       0.62910392       0.37514877       0.87676108 </v>
   <v>       0.87423983       0.12759551       0.87472028 </v>
   <v>       0.87657428       0.37044992       0.62626301 </v>
   <v>       0.62502461       0.62344755       0.12315027 </v>
   <v>       0.62829077       0.87668783       0.37924987 </v>
   <v>       0.87441679       0.62270982       0.38003093 </v>
   <v>       0.87840876       0.87101188       0.12136888 </v>
   <v>       0.63025445       0.62659843       0.62287599 </v>
   <v>       0.62715369       0.87352893       0.87574997 </v>
   <v>       0.87222916       0.62312076       0.87491568 </v>
   <v>       0.87447556       0.87184440       0.62472119 </v>
   <v>       0.00158751       0.00127786       0.99999961 </v>
   <v>       0.00103772       0.25043447       0.24908727 </v>
   <v>       0.24870414       0.00552071       0.24908645 </v>
   <v>       0.25078450       0.24999344       0.99789960 </v>
   <v>       0.99715128       0.99880983       0.49874755 </v>
   <v>       0.99860694       0.24778004       0.74697480 </v>
   <v>       0.25673809       0.99919555       0.74916444 </v>
   <v>       0.24897745       0.24622763       0.49978341 </v>
   <v>       0.00175555       0.50318141       0.00133779 </v>
   <v>       0.99701524       0.75098487       0.25183340 </v>
   <v>       0.25480332       0.50195820       0.24467228 </v>
   <v>       0.25036722       0.75037431       0.00041586 </v>
   <v>       0.99665541       0.49704556       0.50160742 </v>
   <v>       0.00000638       0.75298504       0.75040159 </v>
   <v>       0.25045367       0.49880507       0.75083749 </v>
   <v>       0.24772621       0.75050285       0.50355057 </v>
   <v>       0.49878120       0.99812707       0.00264039 </v>
   <v>       0.50221903       0.24716370       0.25151267 </v>
   <v>       0.75026232       0.00093988       0.24716704 </v>
   <v>       0.75155692       0.25092772       0.00027382 </v>
   <v>       0.49855405       0.99919666       0.50209269 </v>
   <v>       0.50087961       0.24755824       0.75234538 </v>
   <v>       0.74917323       0.00024296       0.74687482 </v>
   <v>       0.75059996       0.24824304       0.50067678 </v>
   <v>       0.50016221       0.49784413       0.00192973 </v>
   <v>       0.49921031       0.74822097       0.25030662 </v>
   <v>       0.75073899       0.49899161       0.24982179 </v>
   <v>       0.75254176       0.74776813       0.00124491 </v>
   <v>       0.49879473       0.49884635       0.50072099 </v>
   <v>       0.49965419       0.75016686       0.75058488 </v>
   <v>       0.74968354       0.49929645       0.74755631 </v>
   <v>       0.75406463       0.75157367       0.49488819 </v>
  </varray>
 </structure>
</modeling>
