unknown system                          
           1
     8.743316    0.000000    0.000000
     0.000000    8.743316    0.000000
     0.000000    0.000000    8.743316
   C    Si
    32    32
Direct configuration=     1
   0.12604515  0.12140744  0.12607338
   0.12587171  0.37423485  0.37423827
   0.37718488  0.12210655  0.37818455
   0.37867848  0.37445249  0.12792779
   0.12481059  0.12390675  0.62587416
   0.12246695  0.37623345  0.87776895
   0.37405085  0.12524694  0.87257832
   0.37372115  0.37369231  0.62202686
   0.12385418  0.62059623  0.12365093
   0.12309843  0.87843529  0.37746405
   0.37595787  0.62302057  0.37239400
   0.37417627  0.87413196  0.12336687
   0.12444925  0.62073880  0.62341108
   0.12519661  0.87714225  0.87148504
   0.37509284  0.62434430  0.87352731
   0.38097343  0.87456084  0.62422759
   0.62208558  0.12554567  0.12397212
   0.62843960  0.37936310  0.37393340
   0.88001265  0.12224849  0.37430774
   0.87416511  0.37177894  0.12584657
   0.62348831  0.12324550  0.62806899
   0.62910392  0.37514877  0.87676108
   0.87423983  0.12759551  0.87472028
   0.87657428  0.37044992  0.62626301
   0.62502461  0.62344755  0.12315027
   0.62829077  0.87668783  0.37924987
   0.87441679  0.62270982  0.38003093
   0.87840876  0.87101188  0.12136888
   0.63025445  0.62659843  0.62287599
   0.62715369  0.87352893  0.87574997
   0.87222916  0.62312076  0.87491568
   0.87447556  0.87184440  0.62472119
   0.00158751  0.00127786  0.99999961
   0.00103772  0.25043447  0.24908727
   0.24870414  0.00552071  0.24908645
   0.25078450  0.24999344  0.99789960
   0.99715128  0.99880983  0.49874755
   0.99860694  0.24778004  0.74697480
   0.25673809  0.99919555  0.74916444
   0.24897745  0.24622763  0.49978341
   0.00175555  0.50318141  0.00133779
   0.99701524  0.75098487  0.25183340
   0.25480332  0.50195820  0.24467228
   0.25036722  0.75037431  0.00041586
   0.99665541  0.49704556  0.50160742
   0.00000638  0.75298504  0.75040159
   0.25045367  0.49880507  0.75083749
   0.24772621  0.75050285  0.50355057
   0.49878120  0.99812707  0.00264039
   0.50221903  0.24716370  0.25151267
   0.75026232  0.00093988  0.24716704
   0.75155692  0.25092772  0.00027382
   0.49855405  0.99919666  0.50209269
   0.50087961  0.24755824  0.75234538
   0.74917323  0.00024296  0.74687482
   0.75059996  0.24824304  0.50067678
   0.50016221  0.49784413  0.00192973
   0.49921031  0.74822097  0.25030662
   0.75073899  0.49899161  0.24982179
   0.75254176  0.74776813  0.00124491
   0.49879473  0.49884635  0.50072099
   0.49965419  0.75016686  0.75058488
   0.74968354  0.49929645  0.74755631
   0.75406463  0.75157367  0.49488819
