       N       E                     dE             d eps       ncg     rms          rms(c)
DAV:   1     0.672558013446E+03    0.67256E+03   -0.99586E+04  4704   0.111E+03
DAV:   2    -0.459152043076E+03   -0.11317E+04   -0.10710E+04  5792   0.221E+02
DAV:   3    -0.535369650166E+03   -0.76218E+02   -0.75483E+02  5672   0.565E+01
DAV:   4    -0.537086277694E+03   -0.17166E+01   -0.17091E+01  5664   0.916E+00
DAV:   5    -0.537136022599E+03   -0.49745E-01   -0.49648E-01  5608   0.146E+00    0.496E+01
DAV:   6    -0.479394080786E+03    0.57742E+02   -0.19232E+02  5352   0.238E+01    0.221E+01
DAV:   7    -0.478122674463E+03    0.12714E+01   -0.16697E+01  5840   0.736E+00    0.989E+00
DAV:   8    -0.477883107367E+03    0.23957E+00   -0.11175E+00  5408   0.211E+00    0.295E+00
DAV:   9    -0.477864950515E+03    0.18157E-01   -0.18557E-01  5488   0.976E-01    0.507E-01
DAV:  10    -0.477866732933E+03   -0.17824E-02   -0.19966E-02  5680   0.334E-01    0.299E-01
DAV:  11    -0.477868231905E+03   -0.14990E-02   -0.39595E-03  5312   0.152E-01    0.138E-01
DAV:  12    -0.477868520045E+03   -0.28814E-03   -0.65240E-04  5328   0.636E-02    0.506E-02
DAV:  13    -0.477868551599E+03   -0.31554E-04   -0.19862E-04  5488   0.315E-02    0.132E-02
DAV:  14    -0.477868552187E+03   -0.58760E-06   -0.10782E-05  5712   0.876E-03    0.708E-03
DAV:  15    -0.477868554655E+03   -0.24685E-05   -0.67883E-06  5336   0.552E-03    0.344E-03
DAV:  16    -0.477868555695E+03   -0.10401E-05   -0.48759E-07  5504   0.170E-03    0.141E-03
DAV:  17    -0.477868556055E+03   -0.35953E-06   -0.14286E-07  5368   0.869E-04    0.825E-04
DAV:  18    -0.477868556039E+03    0.15389E-07   -0.98692E-09  2824   0.263E-04    0.333E-04
DAV:  19    -0.477868556029E+03    0.10703E-07   -0.68004E-09  2728   0.225E-04    0.119E-04
DAV:  20    -0.477868556026E+03    0.29904E-08   -0.20675E-09  2688   0.112E-04
   1 F= -.47786856E+03 E0= -.47787286E+03  d E =0.129011E-01
