<?xml version="1.0" encoding="ISO-8859-1"?>
<modeling>
 <generator>
  <i name="program" type="string">vasp </i>
  <i name="version" type="string">6.2.1  </i>
  <i name="subversion" type="string">16May21 (build Jun 06 2020 10:27:25) complex                          parallel </i>
  <i name="platform" type="string">LinuxIFC </i>
  <i name="date" type="string">2024 01 25 </i>
  <i name="time" type="string">17:15:28 </i>
 </generator>
 <incar>
  <i type="int" name="NELM">    60</i>
  <i type="int" name="IBRION">     1</i>
  <i name="EDIFF">      0.00000001</i>
  <i type="int" name="NSW">     0</i>
  <i type="int" name="ISIF">     3</i>
  <i type="int" name="ISYM">     0</i>
  <i type="logical" name="LWAVE"> F  </i>
  <i type="logical" name="LCHARG"> F  </i>
  <i type="string" name="GGA">PE</i>
 </incar>
 <primitive_cell>
  <structure name="primitive_cell" >
   <crystal>
    <varray name="basis" >
     <v>       8.74331558       0.00000000       0.00000000 </v>
     <v>       0.00000000       8.74331558       0.00000000 </v>
     <v>       0.00000000       0.00000000       8.74331558 </v>
    </varray>
    <i name="volume">    668.38771987 </i>
    <varray name="rec_basis" >
     <v>       0.11437309       0.00000000       0.00000000 </v>
     <v>       0.00000000       0.11437309       0.00000000 </v>
     <v>       0.00000000       0.00000000       0.11437309 </v>
    </varray>
   </crystal>
   <varray name="positions" >
    <v>       0.13022839       0.12959109       0.12894724 </v>
    <v>       0.12659790       0.37305994       0.37586880 </v>
    <v>       0.37516454       0.12305424       0.38718259 </v>
    <v>       0.36213367       0.37445517       0.11885884 </v>
    <v>       0.12804173       0.12468716       0.62421243 </v>
    <v>       0.11476408       0.37728571       0.87734058 </v>
    <v>       0.37311297       0.12628728       0.88398495 </v>
    <v>       0.37068922       0.37478901       0.63388958 </v>
    <v>       0.12836549       0.63015274       0.12490911 </v>
    <v>       0.12969297       0.88759857       0.37546636 </v>
    <v>       0.36936516       0.62185296       0.37565434 </v>
    <v>       0.37719993       0.88012024       0.11932817 </v>
    <v>       0.12447710       0.62961259       0.62533555 </v>
    <v>       0.12934676       0.86647244       0.87580090 </v>
    <v>       0.38607397       0.63895707       0.87242812 </v>
    <v>       0.36851163       0.87749936       0.62159422 </v>
    <v>       0.62652952       0.12002748       0.12324954 </v>
    <v>       0.62275174       0.37007755       0.38151777 </v>
    <v>       0.86987254       0.12461165       0.38138568 </v>
    <v>       0.88123048       0.37687671       0.12355513 </v>
    <v>       0.62688383       0.12259553       0.62951355 </v>
    <v>       0.62492363       0.37146590       0.87308426 </v>
    <v>       0.87351417       0.12438123       0.87390981 </v>
    <v>       0.88628393       0.37052911       0.62491068 </v>
    <v>       0.62365955       0.62054235       0.11998028 </v>
    <v>       0.62249780       0.87043240       0.37836578 </v>
    <v>       0.87513581       0.62218969       0.38042261 </v>
    <v>       0.86560080       0.87800911       0.11917686 </v>
    <v>       0.62154475       0.62666097       0.62097833 </v>
    <v>       0.63169241       0.87783986       0.86547535 </v>
    <v>       0.87556370       0.61772735       0.87814643 </v>
    <v>       0.87919515       0.87910055       0.62059887 </v>
    <v>       0.00982532       0.99855587       0.00430664 </v>
    <v>       0.99584361       0.24794228       0.24672710 </v>
    <v>       0.25283693       0.99641522       0.24612764 </v>
    <v>       0.25436221       0.25181492       0.00447701 </v>
    <v>       0.00119568       0.99885760       0.49421703 </v>
    <v>       0.00412572       0.24874955       0.75286250 </v>
    <v>       0.24575103       0.00616000       0.74903694 </v>
    <v>       0.25204771       0.24513289       0.51445264 </v>
    <v>       0.00172274       0.49944804       0.00732726 </v>
    <v>       0.99349045       0.74559181       0.24683456 </v>
    <v>       0.26041569       0.49940708       0.25249832 </v>
    <v>       0.25552767       0.75479580       0.00410081 </v>
    <v>       0.99748515       0.50688587       0.49448367 </v>
    <v>       0.00408344       0.74904483       0.75331631 </v>
    <v>       0.25046463       0.50430458       0.75281663 </v>
    <v>       0.25436378       0.75567877       0.49622257 </v>
    <v>       0.49531907       0.99936240       0.00812372 </v>
    <v>       0.50748508       0.24886134       0.24830262 </v>
    <v>       0.74514524       0.99287326       0.24524042 </v>
    <v>       0.74994882       0.24168145       0.00028244 </v>
    <v>       0.49714156       0.99071996       0.50178464 </v>
    <v>       0.49699353       0.24742844       0.74870654 </v>
    <v>       0.75198702       0.99932611       0.74175205 </v>
    <v>       0.75450294       0.25060817       0.49550164 </v>
    <v>       0.49776725       0.50642149       0.00171560 </v>
    <v>       0.49259130       0.75584847       0.25263746 </v>
    <v>       0.74926670       0.50378094       0.25416279 </v>
    <v>       0.75088562       0.75351386       0.99902137 </v>
    <v>       0.50166018       0.49552338       0.50049443 </v>
    <v>       0.49385545       0.75593188       0.74773406 </v>
    <v>       0.74406852       0.50345755       0.75400059 </v>
    <v>       0.74905676       0.75082958       0.50030634 </v>
   </varray>
  </structure>
  <varray name="primitive_index" >
   <v type="int" >        1 </v>
   <v type="int" >        2 </v>
   <v type="int" >        3 </v>
   <v type="int" >        4 </v>
   <v type="int" >        5 </v>
   <v type="int" >        6 </v>
   <v type="int" >        7 </v>
   <v type="int" >        8 </v>
   <v type="int" >        9 </v>
   <v type="int" >       10 </v>
   <v type="int" >       11 </v>
   <v type="int" >       12 </v>
   <v type="int" >       13 </v>
   <v type="int" >       14 </v>
   <v type="int" >       15 </v>
   <v type="int" >       16 </v>
   <v type="int" >       17 </v>
   <v type="int" >       18 </v>
   <v type="int" >       19 </v>
   <v type="int" >       20 </v>
   <v type="int" >       21 </v>
   <v type="int" >       22 </v>
   <v type="int" >       23 </v>
   <v type="int" >       24 </v>
   <v type="int" >       25 </v>
   <v type="int" >       26 </v>
   <v type="int" >       27 </v>
   <v type="int" >       28 </v>
   <v type="int" >       29 </v>
   <v type="int" >       30 </v>
   <v type="int" >       31 </v>
   <v type="int" >       32 </v>
   <v type="int" >       33 </v>
   <v type="int" >       34 </v>
   <v type="int" >       35 </v>
   <v type="int" >       36 </v>
   <v type="int" >       37 </v>
   <v type="int" >       38 </v>
   <v type="int" >       39 </v>
   <v type="int" >       40 </v>
   <v type="int" >       41 </v>
   <v type="int" >       42 </v>
   <v type="int" >       43 </v>
   <v type="int" >       44 </v>
   <v type="int" >       45 </v>
   <v type="int" >       46 </v>
   <v type="int" >       47 </v>
   <v type="int" >       48 </v>
   <v type="int" >       49 </v>
   <v type="int" >       50 </v>
   <v type="int" >       51 </v>
   <v type="int" >       52 </v>
   <v type="int" >       53 </v>
   <v type="int" >       54 </v>
   <v type="int" >       55 </v>
   <v type="int" >       56 </v>
   <v type="int" >       57 </v>
   <v type="int" >       58 </v>
   <v type="int" >       59 </v>
   <v type="int" >       60 </v>
   <v type="int" >       61 </v>
   <v type="int" >       62 </v>
   <v type="int" >       63 </v>
   <v type="int" >       64 </v>
  </varray>
 </primitive_cell>
 <kpoints>
  <generation param="Monkhorst-Pack">
   <v type="int" name="divisions">       3        3        3 </v>
   <v name="usershift">      0.00000000       0.00000000       0.00000000 </v>
   <v name="genvec1">      0.33333333       0.00000000       0.00000000 </v>
   <v name="genvec2">      0.00000000       0.33333333       0.00000000 </v>
   <v name="genvec3">      0.00000000       0.00000000       0.33333333 </v>
   <v name="shift">      0.00000000       0.00000000       0.00000000 </v>
  </generation>
  <varray name="kpointlist" >
   <v>       0.00000000       0.00000000       0.00000000 </v>
   <v>       0.33333333       0.00000000       0.00000000 </v>
   <v>       0.00000000       0.33333333       0.00000000 </v>
   <v>       0.00000000       0.00000000       0.33333333 </v>
   <v>       0.33333333       0.33333333       0.00000000 </v>
   <v>       0.00000000       0.33333333       0.33333333 </v>
   <v>       0.33333333       0.00000000       0.33333333 </v>
   <v>      -0.33333333       0.33333333       0.00000000 </v>
   <v>      -0.33333333       0.00000000       0.33333333 </v>
   <v>       0.00000000      -0.33333333       0.33333333 </v>
   <v>       0.33333333       0.33333333       0.33333333 </v>
   <v>      -0.33333333       0.33333333       0.33333333 </v>
   <v>      -0.33333333      -0.33333333       0.33333333 </v>
   <v>       0.33333333      -0.33333333       0.33333333 </v>
  </varray>
  <varray name="weights" >
   <v>       0.03703704 </v>
   <v>       0.07407407 </v>
   <v>       0.07407407 </v>
   <v>       0.07407407 </v>
   <v>       0.07407407 </v>
   <v>       0.07407407 </v>
   <v>       0.07407407 </v>
   <v>       0.07407407 </v>
   <v>       0.07407407 </v>
   <v>       0.07407407 </v>
   <v>       0.07407407 </v>
   <v>       0.07407407 </v>
   <v>       0.07407407 </v>
   <v>       0.07407407 </v>
  </varray>
 </kpoints>
 <parameters>
  <separator name="general" >
   <i type="string" name="SYSTEM">unknown system</i>
   <i type="logical" name="LCOMPAT"> F  </i>
  </separator>
  <separator name="electronic" >
   <i type="string" name="PREC">normal</i>
   <i name="ENMAX">    400.00000000</i>
   <i name="ENAUG">    644.87300000</i>
   <i name="EDIFF">      0.00000001</i>
   <i type="int" name="IALGO">    38</i>
   <i type="int" name="IWAVPR">    10</i>
   <i type="int" name="NBANDS">   168</i>
   <i type="int" name="NBANDSLOW">    -1</i>
   <i type="int" name="NBANDSHIGH">    -1</i>
   <i name="NELECT">    256.00000000</i>
   <i type="int" name="TURBO">     0</i>
   <i type="int" name="IRESTART">     0</i>
   <i type="int" name="NREBOOT">     0</i>
   <i type="int" name="NMIN">     0</i>
   <i name="EREF">      0.00000000</i>
   <separator name="electronic smearing" >
    <i type="int" name="ISMEAR">     1</i>
    <i name="SIGMA">      0.20000000</i>
    <i name="KSPACING">      0.50000000</i>
    <i type="logical" name="KGAMMA"> T  </i>
    <i type="logical" name="KBLOWUP"> T  </i>
   </separator>
   <separator name="electronic projectors" >
    <i type="logical" name="LREAL"> F  </i>
    <v name="ROPT">      0.00000000      0.00000000</v>
    <i type="int" name="LMAXPAW">  -100</i>
    <i type="int" name="LMAXMIX">     2</i>
    <i type="logical" name="NLSPLINE"> F  </i>
   </separator>
   <separator name="electronic startup" >
    <i type="int" name="ISTART">     0</i>
    <i type="int" name="ICHARG">     2</i>
    <i type="int" name="INIWAV">     1</i>
   </separator>
   <separator name="electronic spin" >
    <i type="int" name="ISPIN">     1</i>
    <i type="logical" name="LNONCOLLINEAR"> F  </i>
    <v name="MAGMOM">      1.00000000      1.00000000      1.00000000      1.00000000      1.00000000      1.00000000      1.00000000      1.00000000      1.00000000      1.00000000      1.00000000      1.00000000      1.00000000      1.00000000      1.00000000      1.00000000      1.00000000      1.00000000      1.00000000      1.00000000
      1.00000000      1.00000000      1.00000000      1.00000000      1.00000000      1.00000000      1.00000000      1.00000000      1.00000000      1.00000000      1.00000000      1.00000000      1.00000000      1.00000000      1.00000000      1.00000000      1.00000000      1.00000000      1.00000000      1.00000000
      1.00000000      1.00000000      1.00000000      1.00000000      1.00000000      1.00000000      1.00000000      1.00000000      1.00000000      1.00000000      1.00000000      1.00000000      1.00000000      1.00000000      1.00000000      1.00000000      1.00000000      1.00000000      1.00000000      1.00000000
      1.00000000      1.00000000      1.00000000      1.00000000</v>
    <i name="NUPDOWN">     -1.00000000</i>
    <i type="logical" name="LSORBIT"> F  </i>
    <v name="SAXIS">      0.00000000      0.00000000      1.00000000</v>
    <i type="logical" name="LSPIRAL"> F  </i>
    <v name="QSPIRAL">      0.00000000      0.00000000      0.00000000</v>
    <i type="logical" name="LZEROZ"> F  </i>
   </separator>
   <separator name="electronic exchange-correlation" >
    <i type="logical" name="LASPH"> F  </i>
    <i type="logical" name="LMETAGGA"> F  </i>
   </separator>
   <separator name="electronic convergence" >
    <i type="int" name="NELM">    60</i>
    <i type="int" name="NELMDL">    -5</i>
    <i type="int" name="NELMIN">     2</i>
    <i name="ENINI">    400.00000000</i>
    <separator name="electronic convergence detail" >
     <i type="logical" name="LDIAG"> T  </i>
     <i type="logical" name="LSUBROT"> F  </i>
     <i name="WEIMIN">      0.00000000</i>
     <i name="EBREAK">      0.00000000</i>
     <i name="DEPER">      0.30000000</i>
     <i type="int" name="NRMM">     4</i>
     <i name="TIME">      0.40000000</i>
    </separator>
   </separator>
   <separator name="electronic mixer" >
    <i name="AMIX">      0.40000000</i>
    <i name="BMIX">      1.00000000</i>
    <i name="AMIN">      0.10000000</i>
    <i name="AMIX_MAG">      1.60000000</i>
    <i name="BMIX_MAG">      1.00000000</i>
    <separator name="electronic mixer details" >
     <i type="int" name="IMIX">     4</i>
     <i type="logical" name="MIXFIRST"> F  </i>
     <i type="int" name="MAXMIX">   -45</i>
     <i name="WC">    100.00000000</i>
     <i type="int" name="INIMIX">     1</i>
     <i type="int" name="MIXPRE">     1</i>
     <i type="int" name="MREMOVE">     5</i>
    </separator>
   </separator>
   <separator name="electronic dipolcorrection" >
    <i type="logical" name="LDIPOL"> F  </i>
    <i type="logical" name="LMONO"> F  </i>
    <i type="int" name="IDIPOL">     0</i>
    <i name="EPSILON">      1.00000000</i>
    <v name="DIPOL">   -100.00000000   -100.00000000   -100.00000000</v>
    <i name="EFIELD">      0.00000000</i>
   </separator>
  </separator>
  <separator name="grids" >
   <i type="int" name="NGX">    48</i>
   <i type="int" name="NGY">    48</i>
   <i type="int" name="NGZ">    48</i>
   <i type="int" name="NGXF">    96</i>
   <i type="int" name="NGYF">    96</i>
   <i type="int" name="NGZF">    96</i>
   <i type="logical" name="ADDGRID"> F  </i>
  </separator>
  <separator name="ionic" >
   <i type="int" name="NSW">     0</i>
   <i type="int" name="IBRION">    -1</i>
   <i type="int" name="MDALGO">     0</i>
   <i type="int" name="ISIF">     3</i>
   <i name="PSTRESS">      0.00000000</i>
   <i name="EDIFFG">      0.00000010</i>
   <i type="int" name="NFREE">     0</i>
   <i name="POTIM">      0.50000000</i>
   <i name="SMASS">     -3.00000000</i>
   <i name="SCALEE">      1.00000000</i>
  </separator>
  <separator name="ionic md" >
   <i name="TEBEG">      0.00010000</i>
   <i name="TEEND">      0.00010000</i>
   <i type="int" name="NBLOCK">     1</i>
   <i type="int" name="KBLOCK">     1</i>
   <i type="int" name="NPACO">   256</i>
   <i name="APACO">     16.00000000</i>
  </separator>
  <separator name="symmetry" >
   <i type="int" name="ISYM">     0</i>
   <i name="SYMPREC">      0.00001000</i>
  </separator>
  <separator name="dos" >
   <i type="int" name="LORBIT">     0</i>
   <v name="RWIGS">     -1.00000000     -1.00000000</v>
   <i type="int" name="NEDOS">   301</i>
   <i name="EMIN">     10.00000000</i>
   <i name="EMAX">    -10.00000000</i>
   <i name="EFERMI">      0.00000000</i>
  </separator>
  <separator name="writing" >
   <i type="int" name="NWRITE">     2</i>
   <i type="logical" name="LWAVE"> F  </i>
   <i type="logical" name="LDOWNSAMPLE"> F  </i>
   <i type="logical" name="LCHARG"> F  </i>
   <i type="logical" name="LPARD"> F  </i>
   <i type="logical" name="LVTOT"> F  </i>
   <i type="logical" name="LVHAR"> F  </i>
   <i type="logical" name="LELF"> F  </i>
   <i type="logical" name="LOPTICS"> F  </i>
   <v name="STM">      0.00000000      0.00000000      0.00000000      0.00000000      0.00000000      0.00000000      0.00000000</v>
  </separator>
  <separator name="performance" >
   <i type="int" name="NPAR">     8</i>
   <i type="int" name="NSIM">     4</i>
   <i type="int" name="NBLK">    -1</i>
   <i type="logical" name="LPLANE"> T  </i>
   <i type="logical" name="LSCALAPACK"> T  </i>
   <i type="logical" name="LSCAAWARE"> F  </i>
   <i type="logical" name="LSCALU"> F  </i>
   <i type="logical" name="LASYNC"> F  </i>
   <i type="logical" name="LORBITALREAL"> F  </i>
  </separator>
  <separator name="miscellaneous" >
   <i type="int" name="IDIOT">     3</i>
   <i type="int" name="PHON_NSTRUCT">    -1</i>
   <i type="logical" name="LMUSIC"> F  </i>
   <v name="POMASS">     12.01100000     28.08500000</v>
   <v name="DARWINR">      0.00000000      0.00000000</v>
   <v name="DARWINV">      1.00000000      1.00000000</v>
   <i type="logical" name="LCORR"> T  </i>
  </separator>
  <i type="logical" name="GGA_COMPAT"> T  </i>
  <i type="logical" name="LBERRY"> F  </i>
  <i type="int" name="ICORELEVEL">     0</i>
  <i type="logical" name="LDAU"> F  </i>
  <i type="int" name="I_CONSTRAINED_M">     0</i>
  <separator name="electronic exchange-correlation" >
   <i type="string" name="GGA">PE</i>
   <i type="int" name="VOSKOWN">     0</i>
   <i type="logical" name="LHFCALC"> F  </i>
   <i type="string" name="PRECFOCK"></i>
   <i type="logical" name="LSYMGRAD"> F  </i>
   <i type="logical" name="LHFONE"> F  </i>
   <i type="logical" name="LRHFCALC"> F  </i>
   <i type="logical" name="LTHOMAS"> F  </i>
   <i type="logical" name="LMODELHF"> F  </i>
   <i type="logical" name="LFOCKACE"> F  </i>
   <i name="ENCUT4O">     -1.00000000</i>
   <i type="int" name="EXXOEP">     0</i>
   <i type="int" name="FOURORBIT">     0</i>
   <i name="AEXX">      0.00000000</i>
   <i name="HFALPHA">      0.00000000</i>
   <i name="MCALPHA">      0.00000000</i>
   <i name="ALDAX">      1.00000000</i>
   <i name="AGGAX">      1.00000000</i>
   <i name="ALDAC">      1.00000000</i>
   <i name="AGGAC">      1.00000000</i>
   <i type="int" name="NKREDX">     1</i>
   <i type="int" name="NKREDY">     1</i>
   <i type="int" name="NKREDZ">     1</i>
   <i type="logical" name="SHIFTRED"> F  </i>
   <i type="logical" name="ODDONLY"> F  </i>
   <i type="logical" name="EVENONLY"> F  </i>
   <i type="int" name="LMAXFOCK">     0</i>
   <i type="int" name="NMAXFOCKAE">     0</i>
   <i type="logical" name="LFOCKAEDFT"> F  </i>
   <i name="HFSCREEN">      0.00000000</i>
   <i name="HFSCREENC">      0.00000000</i>
   <i type="int" name="NBANDSGWLOW">     0</i>
  </separator>
  <separator name="vdW DFT" >
   <i type="logical" name="LUSE_VDW"> F  </i>
   <i name="Zab_VDW">     -0.84910000</i>
   <i name="PARAM1">      0.12340000</i>
   <i name="PARAM2">      1.00000000</i>
   <i name="PARAM3">      0.00000000</i>
  </separator>
  <separator name="model GW" >
   <i type="int" name="MODEL_GW">     0</i>
   <i name="MODEL_EPS0">      6.26613487</i>
   <i name="MODEL_ALPHA">      1.00000000</i>
  </separator>
  <separator name="linear response parameters" >
   <i type="logical" name="LEPSILON"> F  </i>
   <i type="logical" name="LRPA"> F  </i>
   <i type="logical" name="LNABLA"> F  </i>
   <i type="logical" name="LVEL"> F  </i>
   <i type="int" name="KINTER">     0</i>
   <i name="CSHIFT">      0.10000000</i>
   <i name="OMEGAMAX">     -1.00000000</i>
   <i name="DEG_THRESHOLD">      0.00200000</i>
   <i name="RTIME">     -0.10000000</i>
   <i name="WPLASMAI">      0.00000000</i>
   <v name="DFIELD">      0.00000000      0.00000000      0.00000000</v>
   <v name="WPLASMA">      0.00000000      0.00000000      0.00000000      0.00000000      0.00000000      0.00000000      0.00000000      0.00000000      0.00000000</v>
  </separator>
  <separator name="orbital magnetization" >
   <i type="logical" name="NUCIND"> F  </i>
   <v name="MAGPOS">      0.00000000      0.00000000      0.00000000</v>
   <i type="logical" name="LNICSALL"> T  </i>
   <i type="logical" name="ORBITALMAG"> F  </i>
   <i type="logical" name="LMAGBLOCH"> F  </i>
   <i type="logical" name="LCHIMAG"> F  </i>
   <i type="logical" name="LGAUGE"> T  </i>
   <i type="int" name="MAGATOM">     0</i>
   <v name="MAGDIPOL">      0.00000000      0.00000000      0.00000000</v>
   <v name="AVECCONST">      0.00000000      0.00000000      0.00000000</v>
  </separator>
  <separator name="response functions" >
   <i type="logical" name="LFINITE_TEMPERATURE"> F  </i>
   <i type="logical" name="LADDER"> F  </i>
   <i type="logical" name="LRPAFORCE"> F  </i>
   <i type="logical" name="LFXC"> F  </i>
   <i type="logical" name="LHARTREE"> T  </i>
   <i type="int" name="IBSE">     0</i>
   <v type="int" name="KPOINT">    -1     0     0     0</v>
   <i type="logical" name="LTCTC"> F  </i>
   <i type="logical" name="LTCTE"> F  </i>
   <i type="logical" name="LTETE"> F  </i>
   <i type="logical" name="LTRIPLET"> F  </i>
   <i type="logical" name="LFXCEPS"> F  </i>
   <i type="logical" name="LFXHEG"> F  </i>
   <i type="int" name="NATURALO">     2</i>
   <i type="logical" name="LHOLEGF"> F  </i>
   <i type="logical" name="L2ORDER"> F  </i>
   <i type="logical" name="LDMP1"> F  </i>
   <i type="logical" name="LMP2LT"> F  </i>
   <i type="logical" name="LSMP2LT"> F  </i>
   <i type="logical" name="LGWLF"> F  </i>
   <i name="ENCUTGW">     -2.00000000</i>
   <i name="ENCUTGWSOFT">     -2.00000000</i>
   <i name="ENCUTLF">     -1.00000000</i>
   <i type="logical" name="LESF_SPLINES"> F  </i>
   <i type="int" name="LMAXMP2">    -1</i>
   <i name="SCISSOR">      0.00000000</i>
   <i type="int" name="NOMEGA">     0</i>
   <i type="int" name="NOMEGAR">     0</i>
   <i type="int" name="NBANDSGW">    -1</i>
   <i type="int" name="NBANDSO">    -1</i>
   <i type="int" name="NBANDSV">    -1</i>
   <i type="int" name="NELM">    60</i>
   <i type="int" name="NELMHF">     1</i>
   <i type="int" name="DIM">     3</i>
   <i type="int" name="IESPILON">     4</i>
   <i type="int" name="ANTIRES">     0</i>
   <i name="OMEGAMAX">    -30.00000000</i>
   <i name="OMEGAMIN">    -30.00000000</i>
   <i name="OMEGATL">   -200.00000000</i>
   <i type="int" name="OMEGAGRID">     0</i>
   <i name="CSHIFT">     -0.10000000</i>
   <i type="logical" name="LSELFENERGY"> F  </i>
   <i type="logical" name="LSPECTRAL"> F  </i>
   <i type="logical" name="LSPECTRALGW"> F  </i>
   <i type="logical" name="LSINGLES"> F  </i>
   <i type="logical" name="LFERMIGW"> F  </i>
   <i type="logical" name="ODDONLYGW"> F  </i>
   <i type="logical" name="EVENONLYGW"> F  </i>
   <i type="int" name="NKREDLFX">     1</i>
   <i type="int" name="NKREDLFY">     1</i>
   <i type="int" name="NKREDLFZ">     1</i>
   <i type="int" name="MAXMEM">  2800</i>
   <i type="int" name="TELESCOPE">     0</i>
   <i type="int" name="NTAUPAR">    -1</i>
   <i type="int" name="NOMEGAPAR">    -1</i>
   <i name="DAMP_NEWTON">      0.80000001</i>
   <i name="LAMBDA">      1.00000000</i>
  </separator>
  <separator name="External order field" >
   <i name="OFIELD_KAPPA">      0.00000000</i>
   <v name="OFIELD_K">      0.00000000      0.00000000      0.00000000</v>
   <i name="OFIELD_Q6_NEAR">      0.00000000</i>
   <i name="OFIELD_Q6_FAR">      0.00000000</i>
   <i name="OFIELD_A">      0.00000000</i>
  </separator>
 </parameters>
 <atominfo>
  <atoms>      64 </atoms>
  <types>       2 </types>
  <array name="atoms" >
   <dimension dim="1">ion</dimension>
   <field type="string">element</field>
   <field type="int">atomtype</field>
   <set>
    <rc><c>C </c><c>   1</c></rc>
    <rc><c>C </c><c>   1</c></rc>
    <rc><c>C </c><c>   1</c></rc>
    <rc><c>C </c><c>   1</c></rc>
    <rc><c>C </c><c>   1</c></rc>
    <rc><c>C </c><c>   1</c></rc>
    <rc><c>C </c><c>   1</c></rc>
    <rc><c>C </c><c>   1</c></rc>
    <rc><c>C </c><c>   1</c></rc>
    <rc><c>C </c><c>   1</c></rc>
    <rc><c>C </c><c>   1</c></rc>
    <rc><c>C </c><c>   1</c></rc>
    <rc><c>C </c><c>   1</c></rc>
    <rc><c>C </c><c>   1</c></rc>
    <rc><c>C </c><c>   1</c></rc>
    <rc><c>C </c><c>   1</c></rc>
    <rc><c>C </c><c>   1</c></rc>
    <rc><c>C </c><c>   1</c></rc>
    <rc><c>C </c><c>   1</c></rc>
    <rc><c>C </c><c>   1</c></rc>
    <rc><c>C </c><c>   1</c></rc>
    <rc><c>C </c><c>   1</c></rc>
    <rc><c>C </c><c>   1</c></rc>
    <rc><c>C </c><c>   1</c></rc>
    <rc><c>C </c><c>   1</c></rc>
    <rc><c>C </c><c>   1</c></rc>
    <rc><c>C </c><c>   1</c></rc>
    <rc><c>C </c><c>   1</c></rc>
    <rc><c>C </c><c>   1</c></rc>
    <rc><c>C </c><c>   1</c></rc>
    <rc><c>C </c><c>   1</c></rc>
    <rc><c>C </c><c>   1</c></rc>
    <rc><c>Si</c><c>   2</c></rc>
    <rc><c>Si</c><c>   2</c></rc>
    <rc><c>Si</c><c>   2</c></rc>
    <rc><c>Si</c><c>   2</c></rc>
    <rc><c>Si</c><c>   2</c></rc>
    <rc><c>Si</c><c>   2</c></rc>
    <rc><c>Si</c><c>   2</c></rc>
    <rc><c>Si</c><c>   2</c></rc>
    <rc><c>Si</c><c>   2</c></rc>
    <rc><c>Si</c><c>   2</c></rc>
    <rc><c>Si</c><c>   2</c></rc>
    <rc><c>Si</c><c>   2</c></rc>
    <rc><c>Si</c><c>   2</c></rc>
    <rc><c>Si</c><c>   2</c></rc>
    <rc><c>Si</c><c>   2</c></rc>
    <rc><c>Si</c><c>   2</c></rc>
    <rc><c>Si</c><c>   2</c></rc>
    <rc><c>Si</c><c>   2</c></rc>
    <rc><c>Si</c><c>   2</c></rc>
    <rc><c>Si</c><c>   2</c></rc>
    <rc><c>Si</c><c>   2</c></rc>
    <rc><c>Si</c><c>   2</c></rc>
    <rc><c>Si</c><c>   2</c></rc>
    <rc><c>Si</c><c>   2</c></rc>
    <rc><c>Si</c><c>   2</c></rc>
    <rc><c>Si</c><c>   2</c></rc>
    <rc><c>Si</c><c>   2</c></rc>
    <rc><c>Si</c><c>   2</c></rc>
    <rc><c>Si</c><c>   2</c></rc>
    <rc><c>Si</c><c>   2</c></rc>
    <rc><c>Si</c><c>   2</c></rc>
    <rc><c>Si</c><c>   2</c></rc>
   </set>
  </array>
  <array name="atomtypes" >
   <dimension dim="1">type</dimension>
   <field type="int">atomspertype</field>
   <field type="string">element</field>
   <field>mass</field>
   <field>valence</field>
   <field type="string">pseudopotential</field>
   <set>
    <rc><c>  32</c><c>C </c><c>     12.01100000</c><c>      4.00000000</c><c>  PAW_PBE C 08Apr2002                   </c></rc>
    <rc><c>  32</c><c>Si</c><c>     28.08500000</c><c>      4.00000000</c><c>  PAW_PBE Si 05Jan2001                  </c></rc>
   </set>
  </array>
 </atominfo>
 <structure name="initialpos" >
  <crystal>
   <varray name="basis" >
    <v>       8.74331558       0.00000000       0.00000000 </v>
    <v>       0.00000000       8.74331558       0.00000000 </v>
    <v>       0.00000000       0.00000000       8.74331558 </v>
   </varray>
   <i name="volume">    668.38771987 </i>
   <varray name="rec_basis" >
    <v>       0.11437309       0.00000000       0.00000000 </v>
    <v>       0.00000000       0.11437309       0.00000000 </v>
    <v>       0.00000000       0.00000000       0.11437309 </v>
   </varray>
  </crystal>
  <varray name="positions" >
   <v>       0.13022839       0.12959109       0.12894724 </v>
   <v>       0.12659790       0.37305994       0.37586880 </v>
   <v>       0.37516454       0.12305424       0.38718259 </v>
   <v>       0.36213367       0.37445517       0.11885884 </v>
   <v>       0.12804173       0.12468716       0.62421243 </v>
   <v>       0.11476408       0.37728571       0.87734058 </v>
   <v>       0.37311297       0.12628728       0.88398495 </v>
   <v>       0.37068922       0.37478901       0.63388958 </v>
   <v>       0.12836549       0.63015274       0.12490911 </v>
   <v>       0.12969297       0.88759857       0.37546636 </v>
   <v>       0.36936516       0.62185296       0.37565434 </v>
   <v>       0.37719993       0.88012024       0.11932817 </v>
   <v>       0.12447710       0.62961259       0.62533555 </v>
   <v>       0.12934676       0.86647244       0.87580090 </v>
   <v>       0.38607397       0.63895707       0.87242812 </v>
   <v>       0.36851163       0.87749936       0.62159422 </v>
   <v>       0.62652952       0.12002748       0.12324954 </v>
   <v>       0.62275174       0.37007755       0.38151777 </v>
   <v>       0.86987254       0.12461165       0.38138568 </v>
   <v>       0.88123048       0.37687671       0.12355513 </v>
   <v>       0.62688383       0.12259553       0.62951355 </v>
   <v>       0.62492363       0.37146590       0.87308426 </v>
   <v>       0.87351417       0.12438123       0.87390981 </v>
   <v>       0.88628393       0.37052911       0.62491068 </v>
   <v>       0.62365955       0.62054235       0.11998028 </v>
   <v>       0.62249780       0.87043240       0.37836578 </v>
   <v>       0.87513581       0.62218969       0.38042261 </v>
   <v>       0.86560080       0.87800911       0.11917686 </v>
   <v>       0.62154475       0.62666097       0.62097833 </v>
   <v>       0.63169241       0.87783986       0.86547535 </v>
   <v>       0.87556370       0.61772735       0.87814643 </v>
   <v>       0.87919515       0.87910055       0.62059887 </v>
   <v>       0.00982532       0.99855587       0.00430664 </v>
   <v>       0.99584361       0.24794228       0.24672710 </v>
   <v>       0.25283693       0.99641522       0.24612764 </v>
   <v>       0.25436221       0.25181492       0.00447701 </v>
   <v>       0.00119568       0.99885760       0.49421703 </v>
   <v>       0.00412572       0.24874955       0.75286250 </v>
   <v>       0.24575103       0.00616000       0.74903694 </v>
   <v>       0.25204771       0.24513289       0.51445264 </v>
   <v>       0.00172274       0.49944804       0.00732726 </v>
   <v>       0.99349045       0.74559181       0.24683456 </v>
   <v>       0.26041569       0.49940708       0.25249832 </v>
   <v>       0.25552767       0.75479580       0.00410081 </v>
   <v>       0.99748515       0.50688587       0.49448367 </v>
   <v>       0.00408344       0.74904483       0.75331631 </v>
   <v>       0.25046463       0.50430458       0.75281663 </v>
   <v>       0.25436378       0.75567877       0.49622257 </v>
   <v>       0.49531907       0.99936240       0.00812372 </v>
   <v>       0.50748508       0.24886134       0.24830262 </v>
   <v>       0.74514524       0.99287326       0.24524042 </v>
   <v>       0.74994882       0.24168145       0.00028244 </v>
   <v>       0.49714156       0.99071996       0.50178464 </v>
   <v>       0.49699353       0.24742844       0.74870654 </v>
   <v>       0.75198702       0.99932611       0.74175205 </v>
   <v>       0.75450294       0.25060817       0.49550164 </v>
   <v>       0.49776725       0.50642149       0.00171560 </v>
   <v>       0.49259130       0.75584847       0.25263746 </v>
   <v>       0.74926670       0.50378094       0.25416279 </v>
   <v>       0.75088562       0.75351386       0.99902137 </v>
   <v>       0.50166018       0.49552338       0.50049443 </v>
   <v>       0.49385545       0.75593188       0.74773406 </v>
   <v>       0.74406852       0.50345755       0.75400059 </v>
   <v>       0.74905676       0.75082958       0.50030634 </v>
  </varray>
 </structure>
 <calculation>
  <scstep>
   <time name="dav">   15.10   15.27</time>
   <time name="total">   15.34   15.51</time>
   <energy>
    <i name="alphaZ">    354.85177120 </i>
    <i name="ewald">  -9069.33209254 </i>
    <i name="hartreedc">   -677.57955481 </i>
    <i name="XCdc">    145.95320306 </i>
    <i name="pawpsdc">   6292.66707184 </i>
    <i name="pawaedc">  -5747.90303932 </i>
    <i name="eentropy">     -0.00229836 </i>
    <i name="bandstr">   1367.72790917 </i>
    <i name="atom">   8006.17504320 </i>
    <i name="e_fr_energy">    672.55801345 </i>
    <i name="e_wo_entrp">    672.56031180 </i>
    <i name="e_0_energy">    672.55877957 </i>
   </energy>
  </scstep>
  <scstep>
   <time name="dav">   16.45   16.48</time>
   <time name="total">   16.46   16.49</time>
   <energy>
    <i name="e_fr_energy">   -459.15204308 </i>
    <i name="e_wo_entrp">   -459.15772620 </i>
    <i name="e_0_energy">   -459.15393745 </i>
   </energy>
  </scstep>
  <scstep>
   <time name="dav">   16.50   16.55</time>
   <time name="total">   16.51   16.56</time>
   <energy>
    <i name="e_fr_energy">   -535.36965017 </i>
    <i name="e_wo_entrp">   -535.39606292 </i>
    <i name="e_0_energy">   -535.37845442 </i>
   </energy>
  </scstep>
  <scstep>
   <time name="dav">   17.20   17.30</time>
   <time name="total">   17.21   17.30</time>
   <energy>
    <i name="e_fr_energy">   -537.08627769 </i>
    <i name="e_wo_entrp">   -537.11349435 </i>
    <i name="e_0_energy">   -537.09534991 </i>
   </energy>
  </scstep>
  <scstep>
   <time name="dav">   15.88   15.93</time>
   <time name="total">   16.13   16.18</time>
   <energy>
    <i name="e_fr_energy">   -537.13602260 </i>
    <i name="e_wo_entrp">   -537.16323874 </i>
    <i name="e_0_energy">   -537.14509465 </i>
   </energy>
  </scstep>
  <scstep>
   <time name="dav">   15.99   16.03</time>
   <time name="total">   16.59   16.65</time>
   <energy>
    <i name="e_fr_energy">   -479.39408079 </i>
    <i name="e_wo_entrp">   -479.40888148 </i>
    <i name="e_0_energy">   -479.39901435 </i>
   </energy>
  </scstep>
  <scstep>
   <time name="dav">   17.22   17.25</time>
   <time name="total">   17.87   17.91</time>
   <energy>
    <i name="e_fr_energy">   -478.12267446 </i>
    <i name="e_wo_entrp">   -478.13552779 </i>
    <i name="e_0_energy">   -478.12695890 </i>
   </energy>
  </scstep>
  <scstep>
   <time name="dav">   15.54   15.59</time>
   <time name="total">   15.96   16.05</time>
   <energy>
    <i name="e_fr_energy">   -477.88310737 </i>
    <i name="e_wo_entrp">   -477.89599126 </i>
    <i name="e_0_energy">   -477.88740200 </i>
   </energy>
  </scstep>
  <scstep>
   <time name="dav">   15.35   15.39</time>
   <time name="total">   15.68   15.73</time>
   <energy>
    <i name="e_fr_energy">   -477.86495052 </i>
    <i name="e_wo_entrp">   -477.87780287 </i>
    <i name="e_0_energy">   -477.86923463 </i>
   </energy>
  </scstep>
  <scstep>
   <time name="dav">   15.91   15.93</time>
   <time name="total">   16.48   16.63</time>
   <energy>
    <i name="e_fr_energy">   -477.86673293 </i>
    <i name="e_wo_entrp">   -477.87967397 </i>
    <i name="e_0_energy">   -477.87104661 </i>
   </energy>
  </scstep>
  <scstep>
   <time name="dav">   15.66   15.77</time>
   <time name="total">   16.20   16.52</time>
   <energy>
    <i name="e_fr_energy">   -477.86823190 </i>
    <i name="e_wo_entrp">   -477.88113795 </i>
    <i name="e_0_energy">   -477.87253392 </i>
   </energy>
  </scstep>
  <scstep>
   <time name="dav">   16.10   16.32</time>
   <time name="total">   16.72   17.10</time>
   <energy>
    <i name="e_fr_energy">   -477.86852004 </i>
    <i name="e_wo_entrp">   -477.88141948 </i>
    <i name="e_0_energy">   -477.87281986 </i>
   </energy>
  </scstep>
  <scstep>
   <time name="dav">   15.10   15.12</time>
   <time name="total">   15.43   15.46</time>
   <energy>
    <i name="e_fr_energy">   -477.86855160 </i>
    <i name="e_wo_entrp">   -477.88145447 </i>
    <i name="e_0_energy">   -477.87285255 </i>
   </energy>
  </scstep>
  <scstep>
   <time name="dav">   16.55   16.74</time>
   <time name="total">   17.14   17.43</time>
   <energy>
    <i name="e_fr_energy">   -477.86855219 </i>
    <i name="e_wo_entrp">   -477.88145258 </i>
    <i name="e_0_energy">   -477.87285232 </i>
   </energy>
  </scstep>
  <scstep>
   <time name="dav">   15.24   15.26</time>
   <time name="total">   15.83   15.88</time>
   <energy>
    <i name="e_fr_energy">   -477.86855466 </i>
    <i name="e_wo_entrp">   -477.88145564 </i>
    <i name="e_0_energy">   -477.87285499 </i>
   </energy>
  </scstep>
  <scstep>
   <time name="dav">   14.99   15.01</time>
   <time name="total">   15.33   15.39</time>
   <energy>
    <i name="e_fr_energy">   -477.86855570 </i>
    <i name="e_wo_entrp">   -477.88145707 </i>
    <i name="e_0_energy">   -477.87285615 </i>
   </energy>
  </scstep>
  <scstep>
   <time name="dav">   14.67   14.69</time>
   <time name="total">   15.00   15.03</time>
   <energy>
    <i name="e_fr_energy">   -477.86855605 </i>
    <i name="e_wo_entrp">   -477.88145731 </i>
    <i name="e_0_energy">   -477.87285647 </i>
   </energy>
  </scstep>
  <scstep>
   <time name="dav">    9.33    9.34</time>
   <time name="total">    9.74    9.83</time>
   <energy>
    <i name="e_fr_energy">   -477.86855604 </i>
    <i name="e_wo_entrp">   -477.88145720 </i>
    <i name="e_0_energy">   -477.87285643 </i>
   </energy>
  </scstep>
  <scstep>
   <time name="dav">    9.15    9.16</time>
   <time name="total">    9.48    9.50</time>
   <energy>
    <i name="e_fr_energy">   -477.86855603 </i>
    <i name="e_wo_entrp">   -477.88145716 </i>
    <i name="e_0_energy">   -477.87285641 </i>
   </energy>
  </scstep>
  <scstep>
   <time name="dav">    9.42    9.52</time>
   <time name="total">    9.61    9.78</time>
   <energy>
    <i name="alphaZ">    354.85177120 </i>
    <i name="ewald">  -9069.33209254 </i>
    <i name="hartreedc">  -1031.36849955 </i>
    <i name="XCdc">    179.40826195 </i>
    <i name="pawpsdc">  33363.31140084 </i>
    <i name="pawaedc"> -32824.35379243 </i>
    <i name="eentropy">      0.01290115 </i>
    <i name="bandstr">    543.42645015 </i>
    <i name="atom">   8006.17504320 </i>
    <i name="e_fr_energy">   -477.86855603 </i>
    <i name="e_wo_entrp">   -477.88145717 </i>
    <i name="e_0_energy">   -477.87285641 </i>
   </energy>
  </scstep>
  <structure>
   <crystal>
    <varray name="basis" >
     <v>       8.74331558       0.00000000       0.00000000 </v>
     <v>       0.00000000       8.74331558       0.00000000 </v>
     <v>       0.00000000       0.00000000       8.74331558 </v>
    </varray>
    <i name="volume">    668.38771987 </i>
    <varray name="rec_basis" >
     <v>       0.11437309       0.00000000       0.00000000 </v>
     <v>       0.00000000       0.11437309       0.00000000 </v>
     <v>       0.00000000       0.00000000       0.11437309 </v>
    </varray>
   </crystal>
   <varray name="positions" >
    <v>       0.13022839       0.12959109       0.12894724 </v>
    <v>       0.12659790       0.37305994       0.37586880 </v>
    <v>       0.37516454       0.12305424       0.38718259 </v>
    <v>       0.36213367       0.37445517       0.11885884 </v>
    <v>       0.12804173       0.12468716       0.62421243 </v>
    <v>       0.11476408       0.37728571       0.87734058 </v>
    <v>       0.37311297       0.12628728       0.88398495 </v>
    <v>       0.37068922       0.37478901       0.63388958 </v>
    <v>       0.12836549       0.63015274       0.12490911 </v>
    <v>       0.12969297       0.88759857       0.37546636 </v>
    <v>       0.36936516       0.62185296       0.37565434 </v>
    <v>       0.37719993       0.88012024       0.11932817 </v>
    <v>       0.12447710       0.62961259       0.62533555 </v>
    <v>       0.12934676       0.86647244       0.87580090 </v>
    <v>       0.38607397       0.63895707       0.87242812 </v>
    <v>       0.36851163       0.87749936       0.62159422 </v>
    <v>       0.62652952       0.12002748       0.12324954 </v>
    <v>       0.62275174       0.37007755       0.38151777 </v>
    <v>       0.86987254       0.12461165       0.38138568 </v>
    <v>       0.88123048       0.37687671       0.12355513 </v>
    <v>       0.62688383       0.12259553       0.62951355 </v>
    <v>       0.62492363       0.37146590       0.87308426 </v>
    <v>       0.87351417       0.12438123       0.87390981 </v>
    <v>       0.88628393       0.37052911       0.62491068 </v>
    <v>       0.62365955       0.62054235       0.11998028 </v>
    <v>       0.62249780       0.87043240       0.37836578 </v>
    <v>       0.87513581       0.62218969       0.38042261 </v>
    <v>       0.86560080       0.87800911       0.11917686 </v>
    <v>       0.62154475       0.62666097       0.62097833 </v>
    <v>       0.63169241       0.87783986       0.86547535 </v>
    <v>       0.87556370       0.61772735       0.87814643 </v>
    <v>       0.87919515       0.87910055       0.62059887 </v>
    <v>       0.00982532       0.99855587       0.00430664 </v>
    <v>       0.99584361       0.24794228       0.24672710 </v>
    <v>       0.25283693       0.99641522       0.24612764 </v>
    <v>       0.25436221       0.25181492       0.00447701 </v>
    <v>       0.00119568       0.99885760       0.49421703 </v>
    <v>       0.00412572       0.24874955       0.75286250 </v>
    <v>       0.24575103       0.00616000       0.74903694 </v>
    <v>       0.25204771       0.24513289       0.51445264 </v>
    <v>       0.00172274       0.49944804       0.00732726 </v>
    <v>       0.99349045       0.74559181       0.24683456 </v>
    <v>       0.26041569       0.49940708       0.25249832 </v>
    <v>       0.25552767       0.75479580       0.00410081 </v>
    <v>       0.99748515       0.50688587       0.49448367 </v>
    <v>       0.00408344       0.74904483       0.75331631 </v>
    <v>       0.25046463       0.50430458       0.75281663 </v>
    <v>       0.25436378       0.75567877       0.49622257 </v>
    <v>       0.49531907       0.99936240       0.00812372 </v>
    <v>       0.50748508       0.24886134       0.24830262 </v>
    <v>       0.74514524       0.99287326       0.24524042 </v>
    <v>       0.74994882       0.24168145       0.00028244 </v>
    <v>       0.49714156       0.99071996       0.50178464 </v>
    <v>       0.49699353       0.24742844       0.74870654 </v>
    <v>       0.75198702       0.99932611       0.74175205 </v>
    <v>       0.75450294       0.25060817       0.49550164 </v>
    <v>       0.49776725       0.50642149       0.00171560 </v>
    <v>       0.49259130       0.75584847       0.25263746 </v>
    <v>       0.74926670       0.50378094       0.25416279 </v>
    <v>       0.75088562       0.75351386       0.99902137 </v>
    <v>       0.50166018       0.49552338       0.50049443 </v>
    <v>       0.49385545       0.75593188       0.74773406 </v>
    <v>       0.74406852       0.50345755       0.75400059 </v>
    <v>       0.74905676       0.75082958       0.50030634 </v>
   </varray>
  </structure>
  <varray name="forces" >
   <v>      -0.46314085      -1.19948685      -0.42506431 </v>
   <v>       0.16185542       0.19926481       0.03597903 </v>
   <v>       0.63694418      -0.02894394      -2.14366667 </v>
   <v>       3.90274232       1.39967140       1.66298568 </v>
   <v>      -1.43805438      -0.48249285       0.94595055 </v>
   <v>       2.64855917      -0.07576570       0.31722515 </v>
   <v>       0.11571738      -0.46847404      -1.24660576 </v>
   <v>       0.80602254       0.29196177      -0.75110387 </v>
   <v>       0.22351755      -0.55064402       0.50838742 </v>
   <v>      -0.69330541      -2.68623368      -1.18588217 </v>
   <v>       1.81917435       1.00672399       0.30195517 </v>
   <v>      -0.61982508      -1.16020163       2.14568049 </v>
   <v>       0.58503334      -0.07042311      -0.69539205 </v>
   <v>      -0.14904245       1.87754577       0.32748560 </v>
   <v>      -2.31938695      -2.15776382       1.47455650 </v>
   <v>       0.65559227      -0.10459807       1.07642852 </v>
   <v>      -0.45593614       0.49868662       0.70031367 </v>
   <v>       0.59477848       0.99289428      -1.55776224 </v>
   <v>       0.70806440      -1.03697621      -2.56642089 </v>
   <v>      -2.06825342      -0.73579012       1.06471862 </v>
   <v>      -0.79588223       0.35888006      -1.55816901 </v>
   <v>      -0.66111033       0.24882652       0.88267203 </v>
   <v>       1.24587360      -0.78156515       0.16716488 </v>
   <v>      -1.98313104       1.26602310      -0.51744590 </v>
   <v>       0.23976020       1.68806110       1.86570662 </v>
   <v>       0.02281855       0.23607181      -0.98924723 </v>
   <v>      -1.08447931       1.54005958      -1.55190502 </v>
   <v>       2.05104030      -0.59546395       1.13449854 </v>
   <v>       0.10035202      -0.01146171       0.58227179 </v>
   <v>      -1.53131061      -0.40249089       1.38764183 </v>
   <v>      -0.03201967       1.64479870       0.06985267 </v>
   <v>      -0.06506145      -1.15974192       0.30834157 </v>
   <v>      -1.30170030       0.44045931      -1.04883278 </v>
   <v>       1.00661253       0.44211996       1.51921791 </v>
   <v>      -0.05635515       2.20154425       1.27325683 </v>
   <v>      -2.54051134      -0.43268102      -1.74600275 </v>
   <v>      -0.08454208       1.08290625       1.03012364 </v>
   <v>      -0.89770394       0.05187817      -0.31652570 </v>
   <v>       0.66732842      -1.21062937       0.90058437 </v>
   <v>      -0.33239706       1.47795833      -2.57563700 </v>
   <v>       0.09258103       0.55359654      -1.25622019 </v>
   <v>       0.96250896       1.32337622       0.45917630 </v>
   <v>      -3.20156168      -0.76112038      -0.22781746 </v>
   <v>      -0.56564255      -1.05841121      -1.23743810 </v>
   <v>       2.00806616      -2.35001148       1.96853651 </v>
   <v>      -1.10181645      -0.38083016      -0.46584548 </v>
   <v>      -0.69579465       0.21356893       0.33038430 </v>
   <v>      -1.90418006      -0.86442553       0.62547178 </v>
   <v>       2.03430972       0.80127742      -3.19932539 </v>
   <v>      -1.93111378      -0.33204024       0.73340049 </v>
   <v>       0.37683960       1.09711233       1.73260588 </v>
   <v>       0.45816605       1.66551605      -0.78476464 </v>
   <v>       0.90026433       2.11257841       0.37569631 </v>
   <v>       0.85362072      -0.07995314       1.00777817 </v>
   <v>       0.52257644       0.54614639       1.20061483 </v>
   <v>      -0.50243504      -0.09392948       2.53696002 </v>
   <v>       0.08950078      -1.64499930      -1.38768191 </v>
   <v>       1.16697184      -1.72626482      -0.46353853 </v>
   <v>      -0.11028188      -1.13536336      -0.76172401 </v>
   <v>      -0.73476019      -1.21717467      -1.49908050 </v>
   <v>      -0.97424511       0.46639330       0.69560191 </v>
   <v>       1.98064733       0.67002220      -0.88865692 </v>
   <v>       1.26087783      -1.20265273      -0.84369031 </v>
   <v>       0.39626281      -0.19691904       0.54222124 </v>
  </varray>
  <varray name="stress" >
   <v>      14.06786800       2.95935358      -0.56780718 </v>
   <v>       2.95935359      17.20962916       3.03651542 </v>
   <v>      -0.56780718       3.03651545      15.86389904 </v>
  </varray>
  <energy>
   <i name="e_fr_energy">   -477.86855603 </i>
   <i name="e_wo_entrp">   -477.88145717 </i>
   <i name="e_0_energy">   -477.87285641 </i>
  </energy>
  <time name="totalsc">  316.28  318.51</time>
  <eigenvalues>
   <array>
    <dimension dim="1">band</dimension>
    <dimension dim="2">kpoint</dimension>
    <dimension dim="3">spin</dimension>
    <field>eigene</field>
    <field>occ</field>
    <set>
     <set comment="spin 1">
      <set comment="kpoint 1">
       <r>   -7.4137    1.0000 </r>
       <r>   -6.0099    1.0000 </r>
       <r>   -5.9114    1.0000 </r>
       <r>   -5.8656    1.0000 </r>
       <r>   -5.7958    1.0000 </r>
       <r>   -5.7550    1.0000 </r>
       <r>   -5.6159    1.0000 </r>
       <r>   -4.7343    1.0000 </r>
       <r>   -4.5955    1.0000 </r>
       <r>   -4.5647    1.0000 </r>
       <r>   -4.4923    1.0000 </r>
       <r>   -4.4781    1.0000 </r>
       <r>   -4.4573    1.0000 </r>
       <r>   -4.4015    1.0000 </r>
       <r>   -4.3457    1.0000 </r>
       <r>   -4.3192    1.0000 </r>
       <r>   -4.2199    1.0000 </r>
       <r>   -4.1293    1.0000 </r>
       <r>   -3.9507    1.0000 </r>
       <r>   -3.7920    1.0000 </r>
       <r>   -3.7368    1.0000 </r>
       <r>   -3.7307    1.0000 </r>
       <r>   -3.6143    1.0000 </r>
       <r>   -2.6495    1.0000 </r>
       <r>   -2.3920    1.0000 </r>
       <r>   -2.3865    1.0000 </r>
       <r>   -2.2646    1.0000 </r>
       <r>   -2.1392    1.0000 </r>
       <r>   -2.1016    1.0000 </r>
       <r>   -2.0327    1.0000 </r>
       <r>   -1.9504    1.0000 </r>
       <r>   -1.7644    1.0000 </r>
       <r>   -0.6286    1.0000 </r>
       <r>   -0.5512    1.0000 </r>
       <r>   -0.5347    1.0000 </r>
       <r>   -0.4015    1.0000 </r>
       <r>    0.1524    1.0000 </r>
       <r>    0.1767    1.0000 </r>
       <r>    0.2185    1.0000 </r>
       <r>    0.8101    1.0000 </r>
       <r>    0.9244    1.0000 </r>
       <r>    0.9438    1.0000 </r>
       <r>    0.9630    1.0000 </r>
       <r>    1.0139    1.0000 </r>
       <r>    1.0357    1.0000 </r>
       <r>    1.8008    1.0000 </r>
       <r>    1.8839    1.0000 </r>
       <r>    1.9155    1.0000 </r>
       <r>    1.9520    1.0000 </r>
       <r>    1.9980    1.0000 </r>
       <r>    2.0020    1.0000 </r>
       <r>    2.0472    1.0000 </r>
       <r>    2.0855    1.0000 </r>
       <r>    2.1202    1.0000 </r>
       <r>    2.1670    1.0000 </r>
       <r>    2.2513    1.0000 </r>
       <r>    2.3159    1.0000 </r>
       <r>    2.8390    1.0000 </r>
       <r>    2.9274    1.0000 </r>
       <r>    2.9560    1.0000 </r>
       <r>    3.0054    1.0000 </r>
       <r>    3.0387    1.0000 </r>
       <r>    3.1082    1.0000 </r>
       <r>    3.2356    1.0000 </r>
       <r>    3.2880    1.0000 </r>
       <r>    3.2979    1.0000 </r>
       <r>    3.3209    1.0000 </r>
       <r>    3.3663    1.0000 </r>
       <r>    3.3883    1.0000 </r>
       <r>    3.5438    1.0000 </r>
       <r>    3.5529    1.0000 </r>
       <r>    3.6192    1.0000 </r>
       <r>    3.6333    1.0000 </r>
       <r>    3.6800    1.0000 </r>
       <r>    3.7192    1.0000 </r>
       <r>    3.7334    1.0000 </r>
       <r>    3.7437    1.0000 </r>
       <r>    3.7540    1.0000 </r>
       <r>    3.7824    1.0000 </r>
       <r>    3.8496    1.0000 </r>
       <r>    3.9039    1.0000 </r>
       <r>    4.4930    1.0000 </r>
       <r>    4.5386    1.0000 </r>
       <r>    4.5998    1.0000 </r>
       <r>    4.6316    1.0000 </r>
       <r>    4.6704    1.0000 </r>
       <r>    4.7336    1.0000 </r>
       <r>    4.8168    1.0000 </r>
       <r>    4.8309    1.0000 </r>
       <r>    4.8550    1.0000 </r>
       <r>    4.8778    1.0000 </r>
       <r>    4.9455    1.0000 </r>
       <r>    4.9819    1.0000 </r>
       <r>    5.8493    1.0000 </r>
       <r>    5.8643    1.0000 </r>
       <r>    5.9347    1.0000 </r>
       <r>    5.9661    1.0000 </r>
       <r>    6.0026    1.0000 </r>
       <r>    6.0082    1.0000 </r>
       <r>    6.0325    1.0000 </r>
       <r>    6.0742    1.0000 </r>
       <r>    6.1258    1.0000 </r>
       <r>    6.2114    1.0000 </r>
       <r>    6.2520    1.0000 </r>
       <r>    6.3273    1.0000 </r>
       <r>    6.4424    1.0000 </r>
       <r>    6.5308    1.0000 </r>
       <r>    6.6055    1.0000 </r>
       <r>    6.6408    1.0000 </r>
       <r>    6.7190    1.0000 </r>
       <r>    6.7655    1.0000 </r>
       <r>    6.7762    1.0000 </r>
       <r>    6.8069    1.0000 </r>
       <r>    6.8521    1.0000 </r>
       <r>    6.9329    1.0000 </r>
       <r>    6.9634    1.0000 </r>
       <r>    7.0076    1.0000 </r>
       <r>    7.0523    1.0000 </r>
       <r>    7.0838    1.0000 </r>
       <r>    7.1099    1.0000 </r>
       <r>    7.1649    1.0000 </r>
       <r>    7.1849    1.0000 </r>
       <r>    7.2400    1.0000 </r>
       <r>    7.2815    1.0000 </r>
       <r>    7.3113    1.0000 </r>
       <r>    8.0925    0.9561 </r>
       <r>    8.1016    0.9387 </r>
       <r>    8.1264    0.8806 </r>
       <r>    9.2187   -0.0000 </r>
       <r>    9.3196   -0.0000 </r>
       <r>    9.4572   -0.0000 </r>
       <r>   11.7861   -0.0000 </r>
       <r>   11.8132   -0.0000 </r>
       <r>   11.8983   -0.0000 </r>
       <r>   11.9753   -0.0000 </r>
       <r>   11.9883   -0.0000 </r>
       <r>   12.0531   -0.0000 </r>
       <r>   12.1382   -0.0000 </r>
       <r>   12.2166   -0.0000 </r>
       <r>   12.3457   -0.0000 </r>
       <r>   12.8030   -0.0000 </r>
       <r>   12.8838   -0.0000 </r>
       <r>   12.9827   -0.0000 </r>
       <r>   13.0107   -0.0000 </r>
       <r>   13.0584   -0.0000 </r>
       <r>   13.1255   -0.0000 </r>
       <r>   13.2034   -0.0000 </r>
       <r>   13.2206   -0.0000 </r>
       <r>   13.2464   -0.0000 </r>
       <r>   13.2885   -0.0000 </r>
       <r>   13.3102   -0.0000 </r>
       <r>   13.3229   -0.0000 </r>
       <r>   13.4222   -0.0000 </r>
       <r>   13.4232   -0.0000 </r>
       <r>   13.4852   -0.0000 </r>
       <r>   13.5123   -0.0000 </r>
       <r>   13.5312   -0.0000 </r>
       <r>   13.5821   -0.0000 </r>
       <r>   13.5889   -0.0000 </r>
       <r>   13.6587   -0.0000 </r>
       <r>   13.7221    0.0000 </r>
       <r>   13.7350    0.0000 </r>
       <r>   13.9684    0.0000 </r>
       <r>   14.0777    0.0000 </r>
       <r>   14.1562    0.0000 </r>
       <r>   14.1840    0.0000 </r>
       <r>   14.2620    0.0000 </r>
       <r>   14.3570    0.0000 </r>
      </set>
      <set comment="kpoint 2">
       <r>   -7.2462    1.0000 </r>
       <r>   -6.6849    1.0000 </r>
       <r>   -5.8276    1.0000 </r>
       <r>   -5.6985    1.0000 </r>
       <r>   -5.6598    1.0000 </r>
       <r>   -5.5301    1.0000 </r>
       <r>   -5.2507    1.0000 </r>
       <r>   -5.1762    1.0000 </r>
       <r>   -5.1400    1.0000 </r>
       <r>   -5.0397    1.0000 </r>
       <r>   -4.6665    1.0000 </r>
       <r>   -4.5079    1.0000 </r>
       <r>   -4.2922    1.0000 </r>
       <r>   -4.2330    1.0000 </r>
       <r>   -4.1760    1.0000 </r>
       <r>   -4.0392    1.0000 </r>
       <r>   -3.9750    1.0000 </r>
       <r>   -3.9321    1.0000 </r>
       <r>   -3.8312    1.0000 </r>
       <r>   -3.5043    1.0000 </r>
       <r>   -3.4718    1.0000 </r>
       <r>   -3.3611    1.0000 </r>
       <r>   -3.3019    1.0000 </r>
       <r>   -3.1299    1.0000 </r>
       <r>   -2.6597    1.0000 </r>
       <r>   -2.5593    1.0000 </r>
       <r>   -2.5001    1.0000 </r>
       <r>   -2.4599    1.0000 </r>
       <r>   -2.3284    1.0000 </r>
       <r>   -2.1671    1.0000 </r>
       <r>   -2.0771    1.0000 </r>
       <r>   -1.9459    1.0000 </r>
       <r>   -0.1760    1.0000 </r>
       <r>   -0.1341    1.0000 </r>
       <r>   -0.0716    1.0000 </r>
       <r>    0.0441    1.0000 </r>
       <r>    0.2914    1.0000 </r>
       <r>    0.3310    1.0000 </r>
       <r>    0.6391    1.0000 </r>
       <r>    0.7096    1.0000 </r>
       <r>    0.8524    1.0000 </r>
       <r>    0.8870    1.0000 </r>
       <r>    0.9308    1.0000 </r>
       <r>    0.9949    1.0000 </r>
       <r>    1.0427    1.0000 </r>
       <r>    1.1021    1.0000 </r>
       <r>    1.1468    1.0000 </r>
       <r>    1.2038    1.0000 </r>
       <r>    1.3048    1.0000 </r>
       <r>    1.3780    1.0000 </r>
       <r>    1.3944    1.0000 </r>
       <r>    1.4881    1.0000 </r>
       <r>    1.5407    1.0000 </r>
       <r>    2.5704    1.0000 </r>
       <r>    2.6462    1.0000 </r>
       <r>    2.6709    1.0000 </r>
       <r>    2.6939    1.0000 </r>
       <r>    2.8232    1.0000 </r>
       <r>    2.8571    1.0000 </r>
       <r>    2.8930    1.0000 </r>
       <r>    2.9241    1.0000 </r>
       <r>    2.9511    1.0000 </r>
       <r>    3.0018    1.0000 </r>
       <r>    3.0498    1.0000 </r>
       <r>    3.1308    1.0000 </r>
       <r>    3.1606    1.0000 </r>
       <r>    3.4805    1.0000 </r>
       <r>    3.5221    1.0000 </r>
       <r>    3.6185    1.0000 </r>
       <r>    3.6503    1.0000 </r>
       <r>    3.9330    1.0000 </r>
       <r>    3.9599    1.0000 </r>
       <r>    4.0102    1.0000 </r>
       <r>    4.0842    1.0000 </r>
       <r>    4.2050    1.0000 </r>
       <r>    4.2664    1.0000 </r>
       <r>    4.3038    1.0000 </r>
       <r>    4.3567    1.0000 </r>
       <r>    4.3939    1.0000 </r>
       <r>    4.4214    1.0000 </r>
       <r>    4.4449    1.0000 </r>
       <r>    4.5186    1.0000 </r>
       <r>    4.5581    1.0000 </r>
       <r>    4.6206    1.0000 </r>
       <r>    4.6406    1.0000 </r>
       <r>    4.7084    1.0000 </r>
       <r>    4.8069    1.0000 </r>
       <r>    4.8303    1.0000 </r>
       <r>    4.8978    1.0000 </r>
       <r>    4.9481    1.0000 </r>
       <r>    4.9877    1.0000 </r>
       <r>    5.0275    1.0000 </r>
       <r>    5.3805    1.0000 </r>
       <r>    5.4134    1.0000 </r>
       <r>    5.5327    1.0000 </r>
       <r>    5.5568    1.0000 </r>
       <r>    5.5911    1.0000 </r>
       <r>    5.6682    1.0000 </r>
       <r>    5.7672    1.0000 </r>
       <r>    5.8477    1.0000 </r>
       <r>    5.8796    1.0000 </r>
       <r>    5.9287    1.0000 </r>
       <r>    6.1342    1.0000 </r>
       <r>    6.2103    1.0000 </r>
       <r>    6.2744    1.0000 </r>
       <r>    6.3019    1.0000 </r>
       <r>    6.3435    1.0000 </r>
       <r>    6.3938    1.0000 </r>
       <r>    6.4513    1.0000 </r>
       <r>    6.5310    1.0000 </r>
       <r>    6.5786    1.0000 </r>
       <r>    6.6639    1.0000 </r>
       <r>    6.7300    1.0000 </r>
       <r>    6.7981    1.0000 </r>
       <r>    6.8499    1.0000 </r>
       <r>    6.8661    1.0000 </r>
       <r>    6.8994    1.0000 </r>
       <r>    6.9787    1.0000 </r>
       <r>    7.0364    1.0000 </r>
       <r>    7.0527    1.0000 </r>
       <r>    7.1072    1.0000 </r>
       <r>    7.1200    1.0000 </r>
       <r>    7.1423    1.0000 </r>
       <r>    7.2027    1.0000 </r>
       <r>    7.2526    1.0000 </r>
       <r>    7.5980    1.0000 </r>
       <r>    7.7739    1.0029 </r>
       <r>    7.7898    1.0039 </r>
       <r>    9.6282   -0.0000 </r>
       <r>   10.0891   -0.0000 </r>
       <r>   10.2189   -0.0000 </r>
       <r>   10.5935   -0.0000 </r>
       <r>   11.8051   -0.0000 </r>
       <r>   11.9081   -0.0000 </r>
       <r>   12.3533   -0.0000 </r>
       <r>   12.4276   -0.0000 </r>
       <r>   12.5121   -0.0000 </r>
       <r>   12.5687   -0.0000 </r>
       <r>   12.6119   -0.0000 </r>
       <r>   12.7681   -0.0000 </r>
       <r>   12.8076   -0.0000 </r>
       <r>   12.8926   -0.0000 </r>
       <r>   12.9125   -0.0000 </r>
       <r>   12.9316   -0.0000 </r>
       <r>   12.9953   -0.0000 </r>
       <r>   13.0203   -0.0000 </r>
       <r>   13.0657   -0.0000 </r>
       <r>   13.1013   -0.0000 </r>
       <r>   13.1603   -0.0000 </r>
       <r>   13.2201   -0.0000 </r>
       <r>   13.4300   -0.0000 </r>
       <r>   13.4974   -0.0000 </r>
       <r>   13.5081   -0.0000 </r>
       <r>   13.5611   -0.0000 </r>
       <r>   13.6196   -0.0000 </r>
       <r>   13.6588   -0.0000 </r>
       <r>   13.6894   -0.0000 </r>
       <r>   13.7245    0.0000 </r>
       <r>   13.7734    0.0000 </r>
       <r>   13.9058    0.0000 </r>
       <r>   13.9711    0.0000 </r>
       <r>   14.0009    0.0000 </r>
       <r>   14.0801    0.0000 </r>
       <r>   14.3997    0.0000 </r>
       <r>   14.5550    0.0000 </r>
       <r>   14.6301    0.0000 </r>
       <r>   14.7177    0.0000 </r>
       <r>   14.7933    0.0000 </r>
      </set>
      <set comment="kpoint 3">
       <r>   -7.2508    1.0000 </r>
       <r>   -6.6658    1.0000 </r>
       <r>   -5.8403    1.0000 </r>
       <r>   -5.7708    1.0000 </r>
       <r>   -5.6494    1.0000 </r>
       <r>   -5.4947    1.0000 </r>
       <r>   -5.2701    1.0000 </r>
       <r>   -5.1805    1.0000 </r>
       <r>   -5.1106    1.0000 </r>
       <r>   -4.9460    1.0000 </r>
       <r>   -4.6776    1.0000 </r>
       <r>   -4.5466    1.0000 </r>
       <r>   -4.3295    1.0000 </r>
       <r>   -4.2747    1.0000 </r>
       <r>   -4.2165    1.0000 </r>
       <r>   -4.0281    1.0000 </r>
       <r>   -3.9503    1.0000 </r>
       <r>   -3.8661    1.0000 </r>
       <r>   -3.8160    1.0000 </r>
       <r>   -3.5316    1.0000 </r>
       <r>   -3.4663    1.0000 </r>
       <r>   -3.3735    1.0000 </r>
       <r>   -3.2464    1.0000 </r>
       <r>   -3.1701    1.0000 </r>
       <r>   -2.6694    1.0000 </r>
       <r>   -2.5881    1.0000 </r>
       <r>   -2.4982    1.0000 </r>
       <r>   -2.3697    1.0000 </r>
       <r>   -2.3359    1.0000 </r>
       <r>   -2.2298    1.0000 </r>
       <r>   -2.1128    1.0000 </r>
       <r>   -1.8946    1.0000 </r>
       <r>   -0.2099    1.0000 </r>
       <r>   -0.1206    1.0000 </r>
       <r>   -0.0715    1.0000 </r>
       <r>    0.0414    1.0000 </r>
       <r>    0.2960    1.0000 </r>
       <r>    0.3166    1.0000 </r>
       <r>    0.6698    1.0000 </r>
       <r>    0.7036    1.0000 </r>
       <r>    0.8134    1.0000 </r>
       <r>    0.9116    1.0000 </r>
       <r>    0.9777    1.0000 </r>
       <r>    1.0096    1.0000 </r>
       <r>    1.0395    1.0000 </r>
       <r>    1.1554    1.0000 </r>
       <r>    1.1669    1.0000 </r>
       <r>    1.2132    1.0000 </r>
       <r>    1.2787    1.0000 </r>
       <r>    1.3331    1.0000 </r>
       <r>    1.3895    1.0000 </r>
       <r>    1.4652    1.0000 </r>
       <r>    1.5335    1.0000 </r>
       <r>    2.5734    1.0000 </r>
       <r>    2.6213    1.0000 </r>
       <r>    2.6356    1.0000 </r>
       <r>    2.7005    1.0000 </r>
       <r>    2.7580    1.0000 </r>
       <r>    2.8551    1.0000 </r>
       <r>    2.8831    1.0000 </r>
       <r>    2.9318    1.0000 </r>
       <r>    2.9690    1.0000 </r>
       <r>    3.0410    1.0000 </r>
       <r>    3.0789    1.0000 </r>
       <r>    3.1109    1.0000 </r>
       <r>    3.2076    1.0000 </r>
       <r>    3.4772    1.0000 </r>
       <r>    3.5157    1.0000 </r>
       <r>    3.6126    1.0000 </r>
       <r>    3.6463    1.0000 </r>
       <r>    3.8923    1.0000 </r>
       <r>    3.9299    1.0000 </r>
       <r>    4.0359    1.0000 </r>
       <r>    4.1203    1.0000 </r>
       <r>    4.2083    1.0000 </r>
       <r>    4.2794    1.0000 </r>
       <r>    4.3181    1.0000 </r>
       <r>    4.3367    1.0000 </r>
       <r>    4.3614    1.0000 </r>
       <r>    4.4283    1.0000 </r>
       <r>    4.4745    1.0000 </r>
       <r>    4.5196    1.0000 </r>
       <r>    4.5581    1.0000 </r>
       <r>    4.6210    1.0000 </r>
       <r>    4.6408    1.0000 </r>
       <r>    4.7349    1.0000 </r>
       <r>    4.7783    1.0000 </r>
       <r>    4.8470    1.0000 </r>
       <r>    4.8859    1.0000 </r>
       <r>    4.9257    1.0000 </r>
       <r>    4.9891    1.0000 </r>
       <r>    5.0545    1.0000 </r>
       <r>    5.3713    1.0000 </r>
       <r>    5.4155    1.0000 </r>
       <r>    5.5049    1.0000 </r>
       <r>    5.5514    1.0000 </r>
       <r>    5.6357    1.0000 </r>
       <r>    5.7016    1.0000 </r>
       <r>    5.7806    1.0000 </r>
       <r>    5.8323    1.0000 </r>
       <r>    5.9064    1.0000 </r>
       <r>    5.9475    1.0000 </r>
       <r>    6.1200    1.0000 </r>
       <r>    6.1797    1.0000 </r>
       <r>    6.2606    1.0000 </r>
       <r>    6.3162    1.0000 </r>
       <r>    6.3657    1.0000 </r>
       <r>    6.4357    1.0000 </r>
       <r>    6.4761    1.0000 </r>
       <r>    6.5099    1.0000 </r>
       <r>    6.5741    1.0000 </r>
       <r>    6.6468    1.0000 </r>
       <r>    6.7336    1.0000 </r>
       <r>    6.7576    1.0000 </r>
       <r>    6.8270    1.0000 </r>
       <r>    6.8444    1.0000 </r>
       <r>    6.8908    1.0000 </r>
       <r>    6.9340    1.0000 </r>
       <r>    6.9815    1.0000 </r>
       <r>    7.0206    1.0000 </r>
       <r>    7.0669    1.0000 </r>
       <r>    7.1225    1.0000 </r>
       <r>    7.2003    1.0000 </r>
       <r>    7.2393    1.0000 </r>
       <r>    7.2813    1.0000 </r>
       <r>    7.5835    1.0000 </r>
       <r>    7.7864    1.0037 </r>
       <r>    7.8463    1.0103 </r>
       <r>    9.6070   -0.0000 </r>
       <r>   10.1303   -0.0000 </r>
       <r>   10.1986   -0.0000 </r>
       <r>   10.5791   -0.0000 </r>
       <r>   11.8666   -0.0000 </r>
       <r>   11.8972   -0.0000 </r>
       <r>   12.3390   -0.0000 </r>
       <r>   12.4282   -0.0000 </r>
       <r>   12.4856   -0.0000 </r>
       <r>   12.5704   -0.0000 </r>
       <r>   12.6023   -0.0000 </r>
       <r>   12.7261   -0.0000 </r>
       <r>   12.7708   -0.0000 </r>
       <r>   12.8995   -0.0000 </r>
       <r>   12.9198   -0.0000 </r>
       <r>   12.9459   -0.0000 </r>
       <r>   13.0087   -0.0000 </r>
       <r>   13.0261   -0.0000 </r>
       <r>   13.0614   -0.0000 </r>
       <r>   13.0931   -0.0000 </r>
       <r>   13.1703   -0.0000 </r>
       <r>   13.2553   -0.0000 </r>
       <r>   13.4422   -0.0000 </r>
       <r>   13.4805   -0.0000 </r>
       <r>   13.5131   -0.0000 </r>
       <r>   13.5418   -0.0000 </r>
       <r>   13.6100   -0.0000 </r>
       <r>   13.6759   -0.0000 </r>
       <r>   13.6990    0.0000 </r>
       <r>   13.7216    0.0000 </r>
       <r>   13.7709    0.0000 </r>
       <r>   13.8624    0.0000 </r>
       <r>   13.9553    0.0000 </r>
       <r>   14.0420    0.0000 </r>
       <r>   14.0928    0.0000 </r>
       <r>   14.3976    0.0000 </r>
       <r>   14.5933    0.0000 </r>
       <r>   14.6290    0.0000 </r>
       <r>   14.6840    0.0000 </r>
       <r>   14.7571    0.0000 </r>
      </set>
      <set comment="kpoint 4">
       <r>   -7.2471    1.0000 </r>
       <r>   -6.6840    1.0000 </r>
       <r>   -5.8258    1.0000 </r>
       <r>   -5.6627    1.0000 </r>
       <r>   -5.6398    1.0000 </r>
       <r>   -5.6011    1.0000 </r>
       <r>   -5.2434    1.0000 </r>
       <r>   -5.1796    1.0000 </r>
       <r>   -5.1308    1.0000 </r>
       <r>   -5.0461    1.0000 </r>
       <r>   -4.6395    1.0000 </r>
       <r>   -4.4937    1.0000 </r>
       <r>   -4.3206    1.0000 </r>
       <r>   -4.2621    1.0000 </r>
       <r>   -4.2169    1.0000 </r>
       <r>   -4.0131    1.0000 </r>
       <r>   -3.9559    1.0000 </r>
       <r>   -3.9239    1.0000 </r>
       <r>   -3.8306    1.0000 </r>
       <r>   -3.4605    1.0000 </r>
       <r>   -3.4125    1.0000 </r>
       <r>   -3.3854    1.0000 </r>
       <r>   -3.3276    1.0000 </r>
       <r>   -3.1819    1.0000 </r>
       <r>   -2.6123    1.0000 </r>
       <r>   -2.5683    1.0000 </r>
       <r>   -2.5321    1.0000 </r>
       <r>   -2.4570    1.0000 </r>
       <r>   -2.3695    1.0000 </r>
       <r>   -2.1312    1.0000 </r>
       <r>   -2.0598    1.0000 </r>
       <r>   -1.9578    1.0000 </r>
       <r>   -0.1847    1.0000 </r>
       <r>   -0.1228    1.0000 </r>
       <r>   -0.0953    1.0000 </r>
       <r>    0.0437    1.0000 </r>
       <r>    0.2949    1.0000 </r>
       <r>    0.3401    1.0000 </r>
       <r>    0.5942    1.0000 </r>
       <r>    0.7507    1.0000 </r>
       <r>    0.8387    1.0000 </r>
       <r>    0.9160    1.0000 </r>
       <r>    0.9385    1.0000 </r>
       <r>    1.0095    1.0000 </r>
       <r>    1.1014    1.0000 </r>
       <r>    1.1207    1.0000 </r>
       <r>    1.1401    1.0000 </r>
       <r>    1.1869    1.0000 </r>
       <r>    1.2642    1.0000 </r>
       <r>    1.3437    1.0000 </r>
       <r>    1.4359    1.0000 </r>
       <r>    1.4813    1.0000 </r>
       <r>    1.5323    1.0000 </r>
       <r>    2.5411    1.0000 </r>
       <r>    2.5897    1.0000 </r>
       <r>    2.6267    1.0000 </r>
       <r>    2.7014    1.0000 </r>
       <r>    2.8058    1.0000 </r>
       <r>    2.8388    1.0000 </r>
       <r>    2.9139    1.0000 </r>
       <r>    2.9599    1.0000 </r>
       <r>    3.0174    1.0000 </r>
       <r>    3.0413    1.0000 </r>
       <r>    3.0584    1.0000 </r>
       <r>    3.0916    1.0000 </r>
       <r>    3.1404    1.0000 </r>
       <r>    3.4955    1.0000 </r>
       <r>    3.5148    1.0000 </r>
       <r>    3.5996    1.0000 </r>
       <r>    3.6402    1.0000 </r>
       <r>    3.8911    1.0000 </r>
       <r>    3.9864    1.0000 </r>
       <r>    4.0341    1.0000 </r>
       <r>    4.0579    1.0000 </r>
       <r>    4.2286    1.0000 </r>
       <r>    4.3016    1.0000 </r>
       <r>    4.3242    1.0000 </r>
       <r>    4.3624    1.0000 </r>
       <r>    4.3699    1.0000 </r>
       <r>    4.4221    1.0000 </r>
       <r>    4.4474    1.0000 </r>
       <r>    4.4763    1.0000 </r>
       <r>    4.5690    1.0000 </r>
       <r>    4.6262    1.0000 </r>
       <r>    4.6670    1.0000 </r>
       <r>    4.7298    1.0000 </r>
       <r>    4.7802    1.0000 </r>
       <r>    4.8170    1.0000 </r>
       <r>    4.8983    1.0000 </r>
       <r>    4.9355    1.0000 </r>
       <r>    4.9950    1.0000 </r>
       <r>    5.0456    1.0000 </r>
       <r>    5.3716    1.0000 </r>
       <r>    5.3962    1.0000 </r>
       <r>    5.5257    1.0000 </r>
       <r>    5.5746    1.0000 </r>
       <r>    5.6376    1.0000 </r>
       <r>    5.6878    1.0000 </r>
       <r>    5.7867    1.0000 </r>
       <r>    5.8411    1.0000 </r>
       <r>    5.8725    1.0000 </r>
       <r>    5.9433    1.0000 </r>
       <r>    6.1033    1.0000 </r>
       <r>    6.2143    1.0000 </r>
       <r>    6.2869    1.0000 </r>
       <r>    6.3238    1.0000 </r>
       <r>    6.3340    1.0000 </r>
       <r>    6.4246    1.0000 </r>
       <r>    6.4564    1.0000 </r>
       <r>    6.4854    1.0000 </r>
       <r>    6.6080    1.0000 </r>
       <r>    6.6497    1.0000 </r>
       <r>    6.6909    1.0000 </r>
       <r>    6.7532    1.0000 </r>
       <r>    6.7793    1.0000 </r>
       <r>    6.8944    1.0000 </r>
       <r>    6.9058    1.0000 </r>
       <r>    6.9586    1.0000 </r>
       <r>    6.9935    1.0000 </r>
       <r>    7.0495    1.0000 </r>
       <r>    7.0836    1.0000 </r>
       <r>    7.1363    1.0000 </r>
       <r>    7.1770    1.0000 </r>
       <r>    7.2241    1.0000 </r>
       <r>    7.2767    1.0000 </r>
       <r>    7.6061    1.0000 </r>
       <r>    7.7875    1.0038 </r>
       <r>    7.8073    1.0054 </r>
       <r>    9.6187   -0.0000 </r>
       <r>   10.0736   -0.0000 </r>
       <r>   10.2226   -0.0000 </r>
       <r>   10.6064   -0.0000 </r>
       <r>   11.8546   -0.0000 </r>
       <r>   11.9481   -0.0000 </r>
       <r>   12.2972   -0.0000 </r>
       <r>   12.4030   -0.0000 </r>
       <r>   12.5008   -0.0000 </r>
       <r>   12.5577   -0.0000 </r>
       <r>   12.5863   -0.0000 </r>
       <r>   12.7253   -0.0000 </r>
       <r>   12.8125   -0.0000 </r>
       <r>   12.8357   -0.0000 </r>
       <r>   12.8862   -0.0000 </r>
       <r>   12.9566   -0.0000 </r>
       <r>   12.9895   -0.0000 </r>
       <r>   13.0951   -0.0000 </r>
       <r>   13.1236   -0.0000 </r>
       <r>   13.1340   -0.0000 </r>
       <r>   13.1841   -0.0000 </r>
       <r>   13.2324   -0.0000 </r>
       <r>   13.4039   -0.0000 </r>
       <r>   13.4419   -0.0000 </r>
       <r>   13.5013   -0.0000 </r>
       <r>   13.5711   -0.0000 </r>
       <r>   13.6004   -0.0000 </r>
       <r>   13.6391   -0.0000 </r>
       <r>   13.6899    0.0000 </r>
       <r>   13.7515    0.0000 </r>
       <r>   13.7740    0.0000 </r>
       <r>   13.8732    0.0000 </r>
       <r>   13.9979    0.0000 </r>
       <r>   14.0463    0.0000 </r>
       <r>   14.0857    0.0000 </r>
       <r>   14.3707    0.0000 </r>
       <r>   14.5754    0.0000 </r>
       <r>   14.6156    0.0000 </r>
       <r>   14.7056    0.0000 </r>
       <r>   14.7553    0.0000 </r>
      </set>
      <set comment="kpoint 5">
       <r>   -7.0864    1.0000 </r>
       <r>   -6.5366    1.0000 </r>
       <r>   -6.4892    1.0000 </r>
       <r>   -5.9714    1.0000 </r>
       <r>   -5.6567    1.0000 </r>
       <r>   -5.4198    1.0000 </r>
       <r>   -5.1175    1.0000 </r>
       <r>   -5.0915    1.0000 </r>
       <r>   -4.9459    1.0000 </r>
       <r>   -4.8852    1.0000 </r>
       <r>   -4.6657    1.0000 </r>
       <r>   -4.5877    1.0000 </r>
       <r>   -4.4990    1.0000 </r>
       <r>   -4.3241    1.0000 </r>
       <r>   -4.1494    1.0000 </r>
       <r>   -4.0132    1.0000 </r>
       <r>   -3.6736    1.0000 </r>
       <r>   -3.5678    1.0000 </r>
       <r>   -3.5119    1.0000 </r>
       <r>   -3.4469    1.0000 </r>
       <r>   -3.3812    1.0000 </r>
       <r>   -3.2753    1.0000 </r>
       <r>   -3.2084    1.0000 </r>
       <r>   -2.9568    1.0000 </r>
       <r>   -2.8940    1.0000 </r>
       <r>   -2.7894    1.0000 </r>
       <r>   -2.7406    1.0000 </r>
       <r>   -2.6291    1.0000 </r>
       <r>   -2.5326    1.0000 </r>
       <r>   -2.3668    1.0000 </r>
       <r>   -2.2777    1.0000 </r>
       <r>   -2.0077    1.0000 </r>
       <r>   -0.2782    1.0000 </r>
       <r>   -0.1883    1.0000 </r>
       <r>    0.3205    1.0000 </r>
       <r>    0.3545    1.0000 </r>
       <r>    0.4427    1.0000 </r>
       <r>    0.4978    1.0000 </r>
       <r>    0.5611    1.0000 </r>
       <r>    0.6064    1.0000 </r>
       <r>    0.6533    1.0000 </r>
       <r>    0.7053    1.0000 </r>
       <r>    0.7674    1.0000 </r>
       <r>    0.8294    1.0000 </r>
       <r>    0.9142    1.0000 </r>
       <r>    1.0243    1.0000 </r>
       <r>    1.1185    1.0000 </r>
       <r>    1.1980    1.0000 </r>
       <r>    1.2975    1.0000 </r>
       <r>    1.3773    1.0000 </r>
       <r>    1.8859    1.0000 </r>
       <r>    1.9524    1.0000 </r>
       <r>    1.9930    1.0000 </r>
       <r>    2.0779    1.0000 </r>
       <r>    2.1339    1.0000 </r>
       <r>    2.1730    1.0000 </r>
       <r>    2.3923    1.0000 </r>
       <r>    2.5669    1.0000 </r>
       <r>    2.6045    1.0000 </r>
       <r>    2.6775    1.0000 </r>
       <r>    2.7452    1.0000 </r>
       <r>    3.0827    1.0000 </r>
       <r>    3.1691    1.0000 </r>
       <r>    3.2755    1.0000 </r>
       <r>    3.3078    1.0000 </r>
       <r>    3.3860    1.0000 </r>
       <r>    3.4837    1.0000 </r>
       <r>    3.5151    1.0000 </r>
       <r>    3.8201    1.0000 </r>
       <r>    3.8799    1.0000 </r>
       <r>    3.9277    1.0000 </r>
       <r>    3.9800    1.0000 </r>
       <r>    3.9929    1.0000 </r>
       <r>    4.0605    1.0000 </r>
       <r>    4.1244    1.0000 </r>
       <r>    4.3207    1.0000 </r>
       <r>    4.3655    1.0000 </r>
       <r>    4.4320    1.0000 </r>
       <r>    4.4773    1.0000 </r>
       <r>    4.5734    1.0000 </r>
       <r>    4.6710    1.0000 </r>
       <r>    4.8176    1.0000 </r>
       <r>    4.8360    1.0000 </r>
       <r>    4.8694    1.0000 </r>
       <r>    4.9110    1.0000 </r>
       <r>    4.9378    1.0000 </r>
       <r>    4.9658    1.0000 </r>
       <r>    5.0444    1.0000 </r>
       <r>    5.1307    1.0000 </r>
       <r>    5.2456    1.0000 </r>
       <r>    5.3092    1.0000 </r>
       <r>    5.3720    1.0000 </r>
       <r>    5.4117    1.0000 </r>
       <r>    5.4591    1.0000 </r>
       <r>    5.4917    1.0000 </r>
       <r>    5.5353    1.0000 </r>
       <r>    5.6146    1.0000 </r>
       <r>    5.6552    1.0000 </r>
       <r>    5.7002    1.0000 </r>
       <r>    5.7636    1.0000 </r>
       <r>    5.7924    1.0000 </r>
       <r>    5.8472    1.0000 </r>
       <r>    5.9003    1.0000 </r>
       <r>    5.9802    1.0000 </r>
       <r>    6.0194    1.0000 </r>
       <r>    6.0663    1.0000 </r>
       <r>    6.1493    1.0000 </r>
       <r>    6.2496    1.0000 </r>
       <r>    6.2823    1.0000 </r>
       <r>    6.3137    1.0000 </r>
       <r>    6.4140    1.0000 </r>
       <r>    6.4438    1.0000 </r>
       <r>    6.5109    1.0000 </r>
       <r>    6.6063    1.0000 </r>
       <r>    6.6456    1.0000 </r>
       <r>    6.6749    1.0000 </r>
       <r>    6.6953    1.0000 </r>
       <r>    6.7625    1.0000 </r>
       <r>    6.8440    1.0000 </r>
       <r>    6.8814    1.0000 </r>
       <r>    6.9735    1.0000 </r>
       <r>    7.0266    1.0000 </r>
       <r>    7.1282    1.0000 </r>
       <r>    7.4204    1.0000 </r>
       <r>    7.4979    1.0000 </r>
       <r>    7.6756    1.0003 </r>
       <r>    7.7262    1.0011 </r>
       <r>    8.0626    0.9993 </r>
       <r>   10.3148   -0.0000 </r>
       <r>   10.3788   -0.0000 </r>
       <r>   10.5183   -0.0000 </r>
       <r>   11.2028   -0.0000 </r>
       <r>   11.2763   -0.0000 </r>
       <r>   11.5519   -0.0000 </r>
       <r>   11.6034   -0.0000 </r>
       <r>   11.8103   -0.0000 </r>
       <r>   12.0784   -0.0000 </r>
       <r>   12.1370   -0.0000 </r>
       <r>   12.6533   -0.0000 </r>
       <r>   12.7159   -0.0000 </r>
       <r>   12.7374   -0.0000 </r>
       <r>   12.8512   -0.0000 </r>
       <r>   12.9149   -0.0000 </r>
       <r>   12.9797   -0.0000 </r>
       <r>   13.0498   -0.0000 </r>
       <r>   13.1111   -0.0000 </r>
       <r>   13.1396   -0.0000 </r>
       <r>   13.1796   -0.0000 </r>
       <r>   13.2913   -0.0000 </r>
       <r>   13.3309   -0.0000 </r>
       <r>   13.4450   -0.0000 </r>
       <r>   13.5058   -0.0000 </r>
       <r>   13.5305   -0.0000 </r>
       <r>   13.5838   -0.0000 </r>
       <r>   13.6236   -0.0000 </r>
       <r>   13.6868   -0.0000 </r>
       <r>   13.7485    0.0000 </r>
       <r>   13.7631    0.0000 </r>
       <r>   13.8113    0.0000 </r>
       <r>   13.9468    0.0000 </r>
       <r>   14.0044    0.0000 </r>
       <r>   14.0919    0.0000 </r>
       <r>   14.1286    0.0000 </r>
       <r>   14.5168    0.0000 </r>
       <r>   14.5924    0.0000 </r>
       <r>   14.6648    0.0000 </r>
       <r>   14.7684    0.0000 </r>
       <r>   14.8651    0.0000 </r>
      </set>
      <set comment="kpoint 6">
       <r>   -7.0871    1.0000 </r>
       <r>   -6.5301    1.0000 </r>
       <r>   -6.4984    1.0000 </r>
       <r>   -5.9652    1.0000 </r>
       <r>   -5.6366    1.0000 </r>
       <r>   -5.4447    1.0000 </r>
       <r>   -5.1128    1.0000 </r>
       <r>   -5.0541    1.0000 </r>
       <r>   -4.9620    1.0000 </r>
       <r>   -4.9351    1.0000 </r>
       <r>   -4.6390    1.0000 </r>
       <r>   -4.5785    1.0000 </r>
       <r>   -4.4943    1.0000 </r>
       <r>   -4.4164    1.0000 </r>
       <r>   -4.0694    1.0000 </r>
       <r>   -3.9994    1.0000 </r>
       <r>   -3.7089    1.0000 </r>
       <r>   -3.5800    1.0000 </r>
       <r>   -3.4773    1.0000 </r>
       <r>   -3.3748    1.0000 </r>
       <r>   -3.3533    1.0000 </r>
       <r>   -3.2816    1.0000 </r>
       <r>   -3.2246    1.0000 </r>
       <r>   -3.0316    1.0000 </r>
       <r>   -2.9285    1.0000 </r>
       <r>   -2.8260    1.0000 </r>
       <r>   -2.6909    1.0000 </r>
       <r>   -2.6411    1.0000 </r>
       <r>   -2.5857    1.0000 </r>
       <r>   -2.3281    1.0000 </r>
       <r>   -2.2129    1.0000 </r>
       <r>   -2.0316    1.0000 </r>
       <r>   -0.2812    1.0000 </r>
       <r>   -0.1649    1.0000 </r>
       <r>    0.2903    1.0000 </r>
       <r>    0.3847    1.0000 </r>
       <r>    0.4302    1.0000 </r>
       <r>    0.5100    1.0000 </r>
       <r>    0.5404    1.0000 </r>
       <r>    0.5814    1.0000 </r>
       <r>    0.6889    1.0000 </r>
       <r>    0.7271    1.0000 </r>
       <r>    0.7765    1.0000 </r>
       <r>    0.8436    1.0000 </r>
       <r>    0.8859    1.0000 </r>
       <r>    0.9740    1.0000 </r>
       <r>    1.1427    1.0000 </r>
       <r>    1.1840    1.0000 </r>
       <r>    1.3064    1.0000 </r>
       <r>    1.3686    1.0000 </r>
       <r>    1.8984    1.0000 </r>
       <r>    1.9187    1.0000 </r>
       <r>    2.0221    1.0000 </r>
       <r>    2.0851    1.0000 </r>
       <r>    2.1146    1.0000 </r>
       <r>    2.2064    1.0000 </r>
       <r>    2.4078    1.0000 </r>
       <r>    2.5742    1.0000 </r>
       <r>    2.5948    1.0000 </r>
       <r>    2.6340    1.0000 </r>
       <r>    2.7299    1.0000 </r>
       <r>    3.0671    1.0000 </r>
[...]
      </set>
     </set>
    </set>
   </array>
  </eigenvalues>
  <separator name="orbital magnetization" >
   <v name="MAGDIPOLOUT">      0.00000000      0.00000000      0.00000000</v>
  </separator>
  <dos>
   <i name="efermi">      8.23033797 </i>
   <total>
    <array>
     <dimension dim="1">gridpoints</dimension>
     <dimension dim="2">spin</dimension>
     <field>energy</field>
     <field>total</field>
     <field>integrated</field>
     <set>
      <set comment="spin 1">
       <r>    -9.4137     0.0000     0.0000 </r>
       <r>    -9.3247     0.0000     0.0000 </r>
       <r>    -9.2358     0.0000     0.0000 </r>
       <r>    -9.1468     0.0000     0.0000 </r>
       <r>    -9.0578    -0.0000    -0.0000 </r>
       <r>    -8.9688    -0.0000    -0.0000 </r>
       <r>    -8.8799    -0.0000    -0.0000 </r>
       <r>    -8.7909    -0.0000    -0.0000 </r>
       <r>    -8.7019    -0.0000    -0.0000 </r>
       <r>    -8.6129    -0.0000    -0.0000 </r>
       <r>    -8.5240    -0.0000    -0.0000 </r>
       <r>    -8.4350    -0.0000    -0.0000 </r>
       <r>    -8.3460    -0.0000    -0.0000 </r>
       <r>    -8.2570    -0.0000    -0.0000 </r>
       <r>    -8.1681    -0.0000    -0.0000 </r>
       <r>    -8.0791    -0.0000    -0.0000 </r>
       <r>    -7.9901    -0.0001    -0.0000 </r>
       <r>    -7.9011    -0.0012    -0.0001 </r>
       <r>    -7.8122    -0.0067    -0.0007 </r>
       <r>    -7.7232    -0.0234    -0.0028 </r>
       <r>    -7.6342    -0.0491    -0.0072 </r>
       <r>    -7.5453    -0.0415    -0.0109 </r>
       <r>    -7.4563     0.1203    -0.0001 </r>
       <r>    -7.3673     0.6456     0.0573 </r>
       <r>    -7.2783     1.6952     0.2081 </r>
       <r>    -7.1894     3.1514     0.4885 </r>
       <r>    -7.1004     4.4924     0.8882 </r>
       <r>    -7.0114     4.9138     1.3254 </r>
       <r>    -6.9224     4.0232     1.6834 </r>
       <r>    -6.8335     2.4822     1.9042 </r>
       <r>    -6.7445     1.8063     2.0649 </r>
       <r>    -6.6555     3.2792     2.3567 </r>
       <r>    -6.5665     6.6087     2.9447 </r>
       <r>    -6.4776     9.7616     3.8132 </r>
       <r>    -6.3886    10.4459     4.7426 </r>
       <r>    -6.2996     8.0999     5.4633 </r>
       <r>    -6.2106     4.3230     5.8480 </r>
       <r>    -6.1217     1.8512     6.0127 </r>
       <r>    -6.0327     2.7327     6.2558 </r>
       <r>    -5.9437     6.3272     6.8188 </r>
       <r>    -5.8548    10.1226     7.7194 </r>
       <r>    -5.7658    12.4484     8.8270 </r>
       <r>    -5.6768    12.8889     9.9738 </r>
       <r>    -5.5878    11.4580    10.9932 </r>
       <r>    -5.4989     8.8581    11.7814 </r>
       <r>    -5.4099     6.5803    12.3668 </r>
       <r>    -5.3209     6.2702    12.9247 </r>
       <r>    -5.2319     8.6207    13.6917 </r>
       <r>    -5.1430    12.1668    14.7743 </r>
       <r>    -5.0540    14.2161    16.0391 </r>
       <r>    -4.9650    13.1596    17.2100 </r>
       <r>    -4.8760     9.3141    18.0387 </r>
       <r>    -4.7871     5.5592    18.5333 </r>
       <r>    -4.6981     6.3285    19.0964 </r>
       <r>    -4.6091    12.1907    20.1810 </r>
       <r>    -4.5201    17.9768    21.7805 </r>
       <r>    -4.4312    19.1135    23.4811 </r>
       <r>    -4.3422    16.3158    24.9328 </r>
       <r>    -4.2532    13.3703    26.1224 </r>
       <r>    -4.1642    13.6000    27.3324 </r>
       <r>    -4.0753    17.2309    28.8655 </r>
       <r>    -3.9863    20.1685    30.6600 </r>
       <r>    -3.8973    18.5245    32.3082 </r>
       <r>    -3.8084    14.4347    33.5925 </r>
       <r>    -3.7194    12.8895    34.7393 </r>
       <r>    -3.6304    14.9111    36.0660 </r>
       <r>    -3.5414    17.9574    37.6638 </r>
       <r>    -3.4525    20.2642    39.4667 </r>
       <r>    -3.3635    21.5332    41.3826 </r>
       <r>    -3.2745    21.1638    43.2656 </r>
       <r>    -3.1855    18.8231    44.9404 </r>
       <r>    -3.0966    15.8831    46.3536 </r>
       <r>    -3.0076    14.5264    47.6460 </r>
       <r>    -2.9186    15.6975    49.0427 </r>
       <r>    -2.8296    18.2876    50.6698 </r>
       <r>    -2.7407    20.6630    52.5083 </r>
       <r>    -2.6517    21.7938    54.4474 </r>
       <r>    -2.5627    20.7549    56.2940 </r>
       <r>    -2.4737    17.8942    57.8861 </r>
       <r>    -2.3848    14.8912    59.2110 </r>
       <r>    -2.2958    12.3438    60.3093 </r>
       <r>    -2.2068    10.4364    61.2379 </r>
       <r>    -2.1179     9.7329    62.1039 </r>
       <r>    -2.0289     9.2047    62.9228 </r>
       <r>    -1.9399     7.1175    63.5561 </r>
       <r>    -1.8509     3.8569    63.8993 </r>
       <r>    -1.7620     1.2680    64.0121 </r>
       <r>    -1.6730     0.1286    64.0235 </r>
       <r>    -1.5840    -0.1138    64.0134 </r>
       <r>    -1.4950    -0.0913    64.0053 </r>
       <r>    -1.4061    -0.0427    64.0015 </r>
       <r>    -1.3171    -0.0136    64.0003 </r>
       <r>    -1.2281    -0.0030    64.0000 </r>
       <r>    -1.1391    -0.0013    63.9999 </r>
       <r>    -1.0502    -0.0054    63.9994 </r>
       <r>    -0.9612    -0.0207    63.9976 </r>
       <r>    -0.8722    -0.0404    63.9940 </r>
       <r>    -0.7832     0.0028    63.9943 </r>
       <r>    -0.6943     0.2004    64.0121 </r>
       <r>    -0.6053     0.4423    64.0514 </r>
       <r>    -0.5163     0.5184    64.0976 </r>
       <r>    -0.4274     1.0465    64.1907 </r>
       <r>    -0.3384     3.5220    64.5040 </r>
       <r>    -0.2494     7.7188    65.1908 </r>
       <r>    -0.1604    10.3481    66.1115 </r>
       <r>    -0.0715     9.3365    66.9422 </r>
       <r>     0.0175     7.4473    67.6048 </r>
       <r>     0.1065     8.3210    68.3452 </r>
       <r>     0.1955    12.0943    69.4213 </r>
       <r>     0.2844    16.8961    70.9246 </r>
       <r>     0.3734    20.4686    72.7457 </r>
       <r>     0.4624    21.2042    74.6324 </r>
       <r>     0.5514    20.8452    76.4870 </r>
       <r>     0.6403    22.9799    78.5316 </r>
       <r>     0.7293    27.6808    80.9945 </r>
       <r>     0.8183    30.9429    83.7476 </r>
       <r>     0.9073    29.9605    86.4133 </r>
       <r>     0.9962    26.9867    88.8144 </r>
       <r>     1.0852    26.5037    91.1725 </r>
       <r>     1.1742    28.9387    93.7473 </r>
       <r>     1.2632    30.5728    96.4675 </r>
       <r>     1.3521    28.6117    99.0132 </r>
       <r>     1.4411    22.5403   101.0187 </r>
       <r>     1.5301    13.6073   102.2294 </r>
       <r>     1.6190     5.1701   102.6894 </r>
       <r>     1.7080     1.1997   102.7961 </r>
       <r>     1.7970     3.4829   103.1060 </r>
       <r>     1.8860    10.0187   103.9974 </r>
       <r>     1.9749    16.4283   105.4591 </r>
       <r>     2.0639    19.5177   107.1957 </r>
       <r>     2.1529    18.7079   108.8602 </r>
       <r>     2.2419    15.0342   110.1978 </r>
       <r>     2.3308    10.6147   111.1423 </r>
       <r>     2.4198     8.2172   111.8734 </r>
       <r>     2.5088    10.1357   112.7752 </r>
       <r>     2.5978    15.2571   114.1327 </r>
       <r>     2.6867    18.2178   115.7536 </r>
       <r>     2.7757    16.3109   117.2048 </r>
       <r>     2.8647    13.8612   118.4381 </r>
       <r>     2.9537    15.7159   119.8364 </r>
       <r>     3.0426    20.9853   121.7036 </r>
       <r>     3.1316    25.8149   124.0004 </r>
       <r>     3.2206    28.5557   126.5411 </r>
       <r>     3.3095    29.1706   129.1365 </r>
       <r>     3.3985    27.8841   131.6175 </r>
       <r>     3.4875    26.2475   133.9528 </r>
       <r>     3.5765    24.5872   136.1404 </r>
       <r>     3.6654    21.4871   138.0522 </r>
       <r>     3.7544    18.2540   139.6764 </r>
       <r>     3.8434    18.0590   141.2831 </r>
       <r>     3.9324    20.6169   143.1175 </r>
       <r>     4.0213    21.8716   145.0635 </r>
       <r>     4.1103    19.9070   146.8347 </r>
       <r>     4.1993    18.8214   148.5093 </r>
       <r>     4.2883    23.3026   150.5826 </r>
       <r>     4.3772    30.9963   153.3405 </r>
       <r>     4.4662    35.6471   156.5121 </r>
       <r>     4.5552    34.7917   159.6077 </r>
       <r>     4.6442    30.8030   162.3483 </r>
       <r>     4.7331    28.9017   164.9198 </r>
       <r>     4.8221    32.4947   167.8110 </r>
       <r>     4.9111    37.7857   171.1729 </r>
       <r>     5.0001    38.4324   174.5924 </r>
       <r>     5.0890    34.0508   177.6220 </r>
       <r>     5.1780    29.6415   180.2594 </r>
       <r>     5.2670    28.7708   182.8192 </r>
       <r>     5.3559    29.8668   185.4766 </r>
       <r>     5.4449    30.5580   188.1954 </r>
       <r>     5.5339    32.0169   191.0441 </r>
       <r>     5.6229    35.1906   194.1751 </r>
       <r>     5.7118    37.9517   197.5518 </r>
       <r>     5.8008    39.0852   201.0294 </r>
       <r>     5.8898    38.8923   204.4898 </r>
       <r>     5.9788    35.8474   207.6793 </r>
       <r>     6.0677    29.3436   210.2901 </r>
       <r>     6.1567    24.2796   212.4503 </r>
       <r>     6.2457    25.9517   214.7594 </r>
       <r>     6.3347    31.6911   217.5790 </r>
       <r>     6.4236    34.7742   220.6730 </r>
       <r>     6.5126    33.5115   223.6547 </r>
       <r>     6.6016    30.5610   226.3738 </r>
       <r>     6.6906    27.9905   228.8642 </r>
       <r>     6.7795    26.7325   231.2427 </r>
       <r>     6.8685    27.7652   233.7131 </r>
       <r>     6.9575    30.7377   236.4479 </r>
       <r>     7.0464    32.4096   239.3315 </r>
       <r>     7.1354    29.6592   241.9704 </r>
       <r>     7.2244    23.4042   244.0528 </r>
       <r>     7.3134    17.1952   245.5827 </r>
       <r>     7.4023    13.9094   246.8203 </r>
       <r>     7.4913    14.3113   248.0936 </r>
       <r>     7.5803    16.6907   249.5787 </r>
       <r>     7.6693    18.3171   251.2084 </r>
       <r>     7.7582    17.3340   252.7507 </r>
       <r>     7.8472    13.5448   253.9558 </r>
       <r>     7.9362     8.9199   254.7494 </r>
       <r>     8.0252     6.0080   255.2840 </r>
       <r>     8.1141     4.6464   255.6974 </r>
       <r>     8.2031     2.9310   255.9582 </r>
       <r>     8.2921     0.9280   256.0408 </r>
       <r>     8.3811    -0.1200   256.0301 </r>
       <r>     8.4700    -0.2255   256.0100 </r>
       <r>     8.5590    -0.0904   256.0020 </r>
       <r>     8.6480    -0.0196   256.0002 </r>
       <r>     8.7369    -0.0039   255.9999 </r>
       <r>     8.8259    -0.0073   255.9992 </r>
       <r>     8.9149    -0.0203   255.9974 </r>
       <r>     9.0039    -0.0201   255.9956 </r>
       <r>     9.0928     0.0619   256.0012 </r>
       <r>     9.1818     0.2636   256.0246 </r>
       <r>     9.2708     0.4672   256.0662 </r>
       <r>     9.3598     0.5526   256.1153 </r>
       <r>     9.4487     0.7329   256.1806 </r>
       <r>     9.5377     1.3044   256.2966 </r>
       <r>     9.6267     1.8616   256.4622 </r>
       <r>     9.7157     1.5864   256.6034 </r>
       <r>     9.8046     0.6115   256.6578 </r>
       <r>     9.8936    -0.0633   256.6522 </r>
       <r>     9.9826     0.2074   256.6706 </r>
       <r>    10.0716     1.4814   256.8024 </r>
       <r>    10.1605     3.5895   257.1218 </r>
       <r>    10.2495     6.0805   257.6628 </r>
       <r>    10.3385     8.0861   258.3822 </r>
       <r>    10.4275     9.4426   259.2224 </r>
       <r>    10.5164    10.7744   260.1810 </r>
       <r>    10.6054    10.9692   261.1570 </r>
       <r>    10.6944     8.4583   261.9096 </r>
       <r>    10.7833     4.5666   262.3159 </r>
       <r>    10.8723     1.4625   262.4460 </r>
       <r>    10.9613    -0.1941   262.4287 </r>
       <r>    11.0503    -0.1509   262.4153 </r>
       <r>    11.1392     2.0798   262.6004 </r>
       <r>    11.2282     5.8628   263.1220 </r>
       <r>    11.3172     8.9303   263.9166 </r>
       <r>    11.4062    10.1152   264.8165 </r>
       <r>    11.4951    10.7406   265.7722 </r>
       <r>    11.5841    11.8893   266.8300 </r>
       <r>    11.6731    13.4351   268.0254 </r>
       <r>    11.7621    15.4560   269.4006 </r>
       <r>    11.8510    17.1953   270.9305 </r>
       <r>    11.9400    17.4715   272.4850 </r>
       <r>    12.0290    17.2458   274.0194 </r>
       <r>    12.1180    16.6018   275.4965 </r>
       <r>    12.2069    13.2169   276.6725 </r>
       <r>    12.2959     8.5360   277.4320 </r>
       <r>    12.3849     7.4288   278.0929 </r>
       <r>    12.4738    10.9939   279.0711 </r>
       <r>    12.5628    16.6136   280.5493 </r>
       <r>    12.6518    22.1170   282.5171 </r>
       <r>    12.7408    26.3953   284.8656 </r>
       <r>    12.8297    29.0082   287.4466 </r>
       <r>    12.9187    30.2536   290.1384 </r>
       <r>    13.0077    30.3959   292.8428 </r>
       <r>    13.0967    29.1536   295.4367 </r>
       <r>    13.1856    25.9381   297.7445 </r>
       <r>    13.2746    21.1833   299.6293 </r>
       <r>    13.3636    18.3372   301.2608 </r>
       <r>    13.4526    21.1875   303.1459 </r>
       <r>    13.5415    27.5557   305.5977 </r>
       <r>    13.6305    31.5012   308.4005 </r>
       <r>    13.7195    31.3877   311.1931 </r>
       <r>    13.8085    29.8299   313.8472 </r>
       <r>    13.8974    29.3335   316.4571 </r>
       <r>    13.9864    30.0348   319.1294 </r>
       <r>    14.0754    29.2897   321.7355 </r>
       <r>    14.1643    24.6370   323.9275 </r>
       <r>    14.2533    16.7379   325.4167 </r>
       <r>    14.3423     9.3184   326.2458 </r>
       <r>    14.4313     7.1149   326.8789 </r>
       <r>    14.5202    11.8920   327.9369 </r>
       <r>    14.6092    19.3182   329.6558 </r>
       <r>    14.6982    22.5386   331.6611 </r>
       <r>    14.7872    19.1422   333.3643 </r>
       <r>    14.8761    11.7950   334.4137 </r>
       <r>    14.9651     4.7587   334.8371 </r>
       <r>    15.0541     1.4904   334.9697 </r>
       <r>    15.1431     2.2464   335.1696 </r>
       <r>    15.2320     3.9175   335.5181 </r>
       <r>    15.3210     3.6698   335.8447 </r>
       <r>    15.4100     1.8167   336.0063 </r>
       <r>    15.4990     0.2881   336.0319 </r>
       <r>    15.5879    -0.1836   336.0156 </r>
       <r>    15.6769    -0.1293   336.0041 </r>
       <r>    15.7659    -0.0385   336.0007 </r>
       <r>    15.8549    -0.0067   336.0001 </r>
       <r>    15.9438    -0.0007   336.0000 </r>
       <r>    16.0328    -0.0001   336.0000 </r>
       <r>    16.1218    -0.0000   336.0000 </r>
       <r>    16.2107    -0.0000   336.0000 </r>
       <r>    16.2997    -0.0000   336.0000 </r>
       <r>    16.3887    -0.0000   336.0000 </r>
       <r>    16.4777    -0.0000   336.0000 </r>
       <r>    16.5666    -0.0000   336.0000 </r>
       <r>    16.6556     0.0000   336.0000 </r>
       <r>    16.7446     0.0000   336.0000 </r>
       <r>    16.8336     0.0000   336.0000 </r>
       <r>    16.9225     0.0000   336.0000 </r>
       <r>    17.0115     0.0000   336.0000 </r>
       <r>    17.1005     0.0000   336.0000 </r>
       <r>    17.1895     0.0000   336.0000 </r>
       <r>    17.2784     0.0000   336.0000 </r>
      </set>
     </set>
    </array>
   </total>
  </dos>
 </calculation>
 <structure name="finalpos" >
  <crystal>
   <varray name="basis" >
    <v>       8.74331558       0.00000000       0.00000000 </v>
    <v>       0.00000000       8.74331558       0.00000000 </v>
    <v>       0.00000000       0.00000000       8.74331558 </v>
   </varray>
   <i name="volume">    668.38771987 </i>
   <varray name="rec_basis" >
    <v>       0.11437309       0.00000000       0.00000000 </v>
    <v>       0.00000000       0.11437309       0.00000000 </v>
    <v>       0.00000000       0.00000000       0.11437309 </v>
   </varray>
  </crystal>
  <varray name="positions" >
   <v>       0.13022839       0.12959109       0.12894724 </v>
   <v>       0.12659790       0.37305994       0.37586880 </v>
   <v>       0.37516454       0.12305424       0.38718259 </v>
   <v>       0.36213367       0.37445517       0.11885884 </v>
   <v>       0.12804173       0.12468716       0.62421243 </v>
   <v>       0.11476408       0.37728571       0.87734058 </v>
   <v>       0.37311297       0.12628728       0.88398495 </v>
   <v>       0.37068922       0.37478901       0.63388958 </v>
   <v>       0.12836549       0.63015274       0.12490911 </v>
   <v>       0.12969297       0.88759857       0.37546636 </v>
   <v>       0.36936516       0.62185296       0.37565434 </v>
   <v>       0.37719993       0.88012024       0.11932817 </v>
   <v>       0.12447710       0.62961259       0.62533555 </v>
   <v>       0.12934676       0.86647244       0.87580090 </v>
   <v>       0.38607397       0.63895707       0.87242812 </v>
   <v>       0.36851163       0.87749936       0.62159422 </v>
   <v>       0.62652952       0.12002748       0.12324954 </v>
   <v>       0.62275174       0.37007755       0.38151777 </v>
   <v>       0.86987254       0.12461165       0.38138568 </v>
   <v>       0.88123048       0.37687671       0.12355513 </v>
   <v>       0.62688383       0.12259553       0.62951355 </v>
   <v>       0.62492363       0.37146590       0.87308426 </v>
   <v>       0.87351417       0.12438123       0.87390981 </v>
   <v>       0.88628393       0.37052911       0.62491068 </v>
   <v>       0.62365955       0.62054235       0.11998028 </v>
   <v>       0.62249780       0.87043240       0.37836578 </v>
   <v>       0.87513581       0.62218969       0.38042261 </v>
   <v>       0.86560080       0.87800911       0.11917686 </v>
   <v>       0.62154475       0.62666097       0.62097833 </v>
   <v>       0.63169241       0.87783986       0.86547535 </v>
   <v>       0.87556370       0.61772735       0.87814643 </v>
   <v>       0.87919515       0.87910055       0.62059887 </v>
   <v>       0.00982532       0.99855587       0.00430664 </v>
   <v>       0.99584361       0.24794228       0.24672710 </v>
   <v>       0.25283693       0.99641522       0.24612764 </v>
   <v>       0.25436221       0.25181492       0.00447701 </v>
   <v>       0.00119568       0.99885760       0.49421703 </v>
   <v>       0.00412572       0.24874955       0.75286250 </v>
   <v>       0.24575103       0.00616000       0.74903694 </v>
   <v>       0.25204771       0.24513289       0.51445264 </v>
   <v>       0.00172274       0.49944804       0.00732726 </v>
   <v>       0.99349045       0.74559181       0.24683456 </v>
   <v>       0.26041569       0.49940708       0.25249832 </v>
   <v>       0.25552767       0.75479580       0.00410081 </v>
   <v>       0.99748515       0.50688587       0.49448367 </v>
   <v>       0.00408344       0.74904483       0.75331631 </v>
   <v>       0.25046463       0.50430458       0.75281663 </v>
   <v>       0.25436378       0.75567877       0.49622257 </v>
   <v>       0.49531907       0.99936240       0.00812372 </v>
   <v>       0.50748508       0.24886134       0.24830262 </v>
   <v>       0.74514524       0.99287326       0.24524042 </v>
   <v>       0.74994882       0.24168145       0.00028244 </v>
   <v>       0.49714156       0.99071996       0.50178464 </v>
   <v>       0.49699353       0.24742844       0.74870654 </v>
   <v>       0.75198702       0.99932611       0.74175205 </v>
   <v>       0.75450294       0.25060817       0.49550164 </v>
   <v>       0.49776725       0.50642149       0.00171560 </v>
   <v>       0.49259130       0.75584847       0.25263746 </v>
   <v>       0.74926670       0.50378094       0.25416279 </v>
   <v>       0.75088562       0.75351386       0.99902137 </v>
   <v>       0.50166018       0.49552338       0.50049443 </v>
   <v>       0.49385545       0.75593188       0.74773406 </v>
   <v>       0.74406852       0.50345755       0.75400059 </v>
   <v>       0.74905676       0.75082958       0.50030634 </v>
  </varray>
 </structure>
</modeling>
