unknown system                          
           1
     8.743316    0.000000    0.000000
     0.000000    8.743316    0.000000
     0.000000    0.000000    8.743316
   C    Si
    32    32
Direct configuration=     1
   0.13022839  0.12959109  0.12894724
   0.12659790  0.37305994  0.37586880
   0.37516454  0.12305424  0.38718259
   0.36213367  0.37445517  0.11885884
   0.12804173  0.12468716  0.62421243
   0.11476408  0.37728571  0.87734058
   0.37311297  0.12628728  0.88398495
   0.37068922  0.37478901  0.63388958
   0.12836549  0.63015274  0.12490911
   0.12969297  0.88759857  0.37546636
   0.36936516  0.62185296  0.37565434
   0.37719993  0.88012024  0.11932817
   0.12447710  0.62961259  0.62533555
   0.12934676  0.86647244  0.87580090
   0.38607397  0.63895707  0.87242812
   0.36851163  0.87749936  0.62159422
   0.62652952  0.12002748  0.12324954
   0.62275174  0.37007755  0.38151777
   0.86987254  0.12461165  0.38138568
   0.88123048  0.37687671  0.12355513
   0.62688383  0.12259553  0.62951355
   0.62492363  0.37146590  0.87308426
   0.87351417  0.12438123  0.87390981
   0.88628393  0.37052911  0.62491068
   0.62365955  0.62054235  0.11998028
   0.62249780  0.87043240  0.37836578
   0.87513581  0.62218969  0.38042261
   0.86560080  0.87800911  0.11917686
   0.62154475  0.62666097  0.62097833
   0.63169241  0.87783986  0.86547535
   0.87556370  0.61772735  0.87814643
   0.87919515  0.87910055  0.62059887
   0.00982532  0.99855587  0.00430664
   0.99584361  0.24794228  0.24672710
   0.25283693  0.99641522  0.24612764
   0.25436221  0.25181492  0.00447701
   0.00119568  0.99885760  0.49421703
   0.00412572  0.24874955  0.75286250
   0.24575103  0.00616000  0.74903694
   0.25204771  0.24513289  0.51445264
   0.00172274  0.49944804  0.00732726
   0.99349045  0.74559181  0.24683456
   0.26041569  0.49940708  0.25249832
   0.25552767  0.75479580  0.00410081
   0.99748515  0.50688587  0.49448367
   0.00408344  0.74904483  0.75331631
   0.25046463  0.50430458  0.75281663
   0.25436378  0.75567877  0.49622257
   0.49531907  0.99936240  0.00812372
   0.50748508  0.24886134  0.24830262
   0.74514524  0.99287326  0.24524042
   0.74994882  0.24168145  0.00028244
   0.49714156  0.99071996  0.50178464
   0.49699353  0.24742844  0.74870654
   0.75198702  0.99932611  0.74175205
   0.75450294  0.25060817  0.49550164
   0.49776725  0.50642149  0.00171560
   0.49259130  0.75584847  0.25263746
   0.74926670  0.50378094  0.25416279
   0.75088562  0.75351386  0.99902137
   0.50166018  0.49552338  0.50049443
   0.49385545  0.75593188  0.74773406
   0.74406852  0.50345755  0.75400059
   0.74905676  0.75082958  0.50030634
