       N       E                     dE             d eps       ncg     rms          rms(c)
DAV:   1     0.669853495056E+03    0.66985E+03   -0.99569E+04  4704   0.111E+03
DAV:   2    -0.461517037923E+03   -0.11314E+04   -0.10703E+04  5800   0.221E+02
DAV:   3    -0.537262721118E+03   -0.75746E+02   -0.75040E+02  5672   0.563E+01
DAV:   4    -0.538952166571E+03   -0.16894E+01   -0.16820E+01  5704   0.910E+00
DAV:   5    -0.539000801489E+03   -0.48635E-01   -0.48551E-01  5552   0.146E+00    0.493E+01
DAV:   6    -0.482044189010E+03    0.56957E+02   -0.19089E+02  5336   0.235E+01    0.219E+01
DAV:   7    -0.480697057784E+03    0.13471E+01   -0.15895E+01  5864   0.710E+00    0.977E+00
DAV:   8    -0.480466217683E+03    0.23084E+00   -0.10364E+00  5416   0.199E+00    0.269E+00
DAV:   9    -0.480449602665E+03    0.16615E-01   -0.15106E-01  5488   0.850E-01    0.449E-01
DAV:  10    -0.480452206116E+03   -0.26035E-02   -0.14155E-02  5872   0.272E-01    0.258E-01
DAV:  11    -0.480453453874E+03   -0.12478E-02   -0.24469E-03  5208   0.124E-01    0.992E-02
DAV:  12    -0.480453533273E+03   -0.79400E-04   -0.38368E-04  6256   0.490E-02    0.450E-02
DAV:  13    -0.480453548580E+03   -0.15307E-04   -0.13413E-04  5120   0.258E-02    0.104E-02
DAV:  14    -0.480453553052E+03   -0.44721E-05   -0.60662E-06  5640   0.595E-03    0.528E-03
DAV:  15    -0.480453554912E+03   -0.18598E-05   -0.27211E-06  5712   0.366E-03    0.380E-03
DAV:  16    -0.480453554868E+03    0.43787E-07   -0.44988E-07  5896   0.177E-03    0.131E-03
DAV:  17    -0.480453555310E+03   -0.44152E-06   -0.13169E-07  5232   0.791E-04    0.712E-04
DAV:  18    -0.480453555357E+03   -0.46741E-07   -0.10402E-08  2848   0.285E-04    0.329E-04
DAV:  19    -0.480453555342E+03    0.15010E-07   -0.14651E-08  2712   0.260E-04    0.164E-04
DAV:  20    -0.480453555345E+03   -0.33142E-08   -0.24359E-09  2688   0.140E-04
   1 F= -.48045356E+03 E0= -.48045700E+03  d E =0.103382E-01
