<?xml version="1.0" encoding="ISO-8859-1"?>
<modeling>
 <generator>
  <i name="program" type="string">vasp </i>
  <i name="version" type="string">6.2.1  </i>
  <i name="subversion" type="string">16May21 (build Jun 06 2020 10:27:25) complex                          parallel </i>
  <i name="platform" type="string">LinuxIFC </i>
  <i name="date" type="string">2024 01 25 </i>
  <i name="time" type="string">17:07:29 </i>
 </generator>
 <incar>
  <i type="int" name="NELM">    60</i>
  <i type="int" name="IBRION">     1</i>
  <i name="EDIFF">      0.00000001</i>
  <i type="int" name="NSW">     0</i>
  <i type="int" name="ISIF">     3</i>
  <i type="int" name="ISYM">     0</i>
  <i type="logical" name="LWAVE"> F  </i>
  <i type="logical" name="LCHARG"> F  </i>
  <i type="string" name="GGA">PE</i>
 </incar>
 <primitive_cell>
  <structure name="primitive_cell" >
   <crystal>
    <varray name="basis" >
     <v>       8.74331558       0.00000000       0.00000000 </v>
     <v>       0.00000000       8.74331558       0.00000000 </v>
     <v>       0.00000000       0.00000000       8.74331558 </v>
    </varray>
    <i name="volume">    668.38771987 </i>
    <varray name="rec_basis" >
     <v>       0.11437309       0.00000000       0.00000000 </v>
     <v>       0.00000000       0.11437309       0.00000000 </v>
     <v>       0.00000000       0.00000000       0.11437309 </v>
    </varray>
   </crystal>
   <varray name="positions" >
    <v>       0.12499835       0.11893183       0.12717490 </v>
    <v>       0.11907999       0.37162801       0.37171087 </v>
    <v>       0.37555079       0.12494005       0.37640580 </v>
    <v>       0.37258207       0.38016385       0.12933047 </v>
    <v>       0.12945430       0.12282961       0.62129568 </v>
    <v>       0.12868049       0.37542314       0.87827426 </v>
    <v>       0.37356780       0.12194853       0.87283465 </v>
    <v>       0.37628966       0.37571965       0.62309169 </v>
    <v>       0.12098932       0.62292213       0.13271412 </v>
    <v>       0.12166312       0.87569011       0.37149304 </v>
    <v>       0.37319015       0.62093142       0.37456073 </v>
    <v>       0.37336530       0.87793938       0.12786504 </v>
    <v>       0.13022133       0.62054140       0.62389879 </v>
    <v>       0.12513728       0.87575768       0.87405894 </v>
    <v>       0.37486024       0.62140349       0.87906298 </v>
    <v>       0.37551688       0.87618039       0.62651593 </v>
    <v>       0.62449489       0.12499808       0.12447864 </v>
    <v>       0.62853404       0.36766493       0.37257886 </v>
    <v>       0.87935251       0.12603995       0.36920509 </v>
    <v>       0.87486170       0.37617489       0.12236663 </v>
    <v>       0.62655582       0.12475116       0.62391622 </v>
    <v>       0.61720256       0.37626922       0.87378169 </v>
    <v>       0.87670990       0.13545015       0.86971348 </v>
    <v>       0.87119309       0.37255518       0.61875109 </v>
    <v>       0.62746073       0.61737187       0.12485189 </v>
    <v>       0.62496094       0.87352036       0.37182933 </v>
    <v>       0.87556538       0.62014768       0.37385061 </v>
    <v>       0.87429804       0.87764347       0.12020915 </v>
    <v>       0.62577633       0.62059632       0.62624179 </v>
    <v>       0.62499209       0.88076686       0.87804618 </v>
    <v>       0.87254570       0.62636487       0.87415947 </v>
    <v>       0.87248214       0.87426282       0.62701587 </v>
    <v>       0.00925424       0.99976904       0.99893176 </v>
    <v>       0.99930703       0.24982450       0.24685816 </v>
    <v>       0.24799596       0.99756472       0.24780699 </v>
    <v>       0.25405037       0.24987016       0.99669953 </v>
    <v>       0.99702525       0.00271304       0.50173240 </v>
    <v>       0.99948789       0.24777298       0.75458030 </v>
    <v>       0.25293025       0.00363753       0.74845598 </v>
    <v>       0.24618201       0.24512356       0.50024885 </v>
    <v>       0.00017041       0.50288422       0.00345812 </v>
    <v>       0.00334315       0.75004655       0.25521160 </v>
    <v>       0.24548834       0.49852447       0.24645125 </v>
    <v>       0.25668679       0.74378520       0.99777984 </v>
    <v>       0.00166531       0.49721070       0.49849764 </v>
    <v>       0.00030375       0.74597331       0.74886366 </v>
    <v>       0.25093914       0.49768544       0.75274894 </v>
    <v>       0.25090646       0.74839818       0.50234317 </v>
    <v>       0.50140882       0.99773419       0.00067389 </v>
    <v>       0.50016382       0.24870177       0.24817973 </v>
    <v>       0.75351106       0.99858480       0.24827038 </v>
    <v>       0.74895334       0.25033975       0.99839375 </v>
    <v>       0.49921608       0.99966062       0.49717490 </v>
    <v>       0.49474875       0.24777531       0.75529674 </v>
    <v>       0.74869787       0.99675477       0.74864142 </v>
    <v>       0.75289974       0.24956728       0.50135864 </v>
    <v>       0.49922169       0.50058105       0.00257841 </v>
    <v>       0.49709672       0.74802880       0.25007855 </v>
    <v>       0.75001724       0.49962577       0.24878759 </v>
    <v>       0.74667972       0.74991702       0.99977266 </v>
    <v>       0.50372874       0.50118476       0.49962572 </v>
    <v>       0.50164048       0.75089279       0.75019511 </v>
    <v>       0.75208454       0.50040023       0.74903664 </v>
    <v>       0.75387288       0.74637170       0.49477067 </v>
   </varray>
  </structure>
  <varray name="primitive_index" >
   <v type="int" >        1 </v>
   <v type="int" >        2 </v>
   <v type="int" >        3 </v>
   <v type="int" >        4 </v>
   <v type="int" >        5 </v>
   <v type="int" >        6 </v>
   <v type="int" >        7 </v>
   <v type="int" >        8 </v>
   <v type="int" >        9 </v>
   <v type="int" >       10 </v>
   <v type="int" >       11 </v>
   <v type="int" >       12 </v>
   <v type="int" >       13 </v>
   <v type="int" >       14 </v>
   <v type="int" >       15 </v>
   <v type="int" >       16 </v>
   <v type="int" >       17 </v>
   <v type="int" >       18 </v>
   <v type="int" >       19 </v>
   <v type="int" >       20 </v>
   <v type="int" >       21 </v>
   <v type="int" >       22 </v>
   <v type="int" >       23 </v>
   <v type="int" >       24 </v>
   <v type="int" >       25 </v>
   <v type="int" >       26 </v>
   <v type="int" >       27 </v>
   <v type="int" >       28 </v>
   <v type="int" >       29 </v>
   <v type="int" >       30 </v>
   <v type="int" >       31 </v>
   <v type="int" >       32 </v>
   <v type="int" >       33 </v>
   <v type="int" >       34 </v>
   <v type="int" >       35 </v>
   <v type="int" >       36 </v>
   <v type="int" >       37 </v>
   <v type="int" >       38 </v>
   <v type="int" >       39 </v>
   <v type="int" >       40 </v>
   <v type="int" >       41 </v>
   <v type="int" >       42 </v>
   <v type="int" >       43 </v>
   <v type="int" >       44 </v>
   <v type="int" >       45 </v>
   <v type="int" >       46 </v>
   <v type="int" >       47 </v>
   <v type="int" >       48 </v>
   <v type="int" >       49 </v>
   <v type="int" >       50 </v>
   <v type="int" >       51 </v>
   <v type="int" >       52 </v>
   <v type="int" >       53 </v>
   <v type="int" >       54 </v>
   <v type="int" >       55 </v>
   <v type="int" >       56 </v>
   <v type="int" >       57 </v>
   <v type="int" >       58 </v>
   <v type="int" >       59 </v>
   <v type="int" >       60 </v>
   <v type="int" >       61 </v>
   <v type="int" >       62 </v>
   <v type="int" >       63 </v>
   <v type="int" >       64 </v>
  </varray>
 </primitive_cell>
 <kpoints>
  <generation param="Monkhorst-Pack">
   <v type="int" name="divisions">       3        3        3 </v>
   <v name="usershift">      0.00000000       0.00000000       0.00000000 </v>
   <v name="genvec1">      0.33333333       0.00000000       0.00000000 </v>
   <v name="genvec2">      0.00000000       0.33333333       0.00000000 </v>
   <v name="genvec3">      0.00000000       0.00000000       0.33333333 </v>
   <v name="shift">      0.00000000       0.00000000       0.00000000 </v>
  </generation>
  <varray name="kpointlist" >
   <v>       0.00000000       0.00000000       0.00000000 </v>
   <v>       0.33333333       0.00000000       0.00000000 </v>
   <v>       0.00000000       0.33333333       0.00000000 </v>
   <v>       0.00000000       0.00000000       0.33333333 </v>
   <v>       0.33333333       0.33333333       0.00000000 </v>
   <v>       0.00000000       0.33333333       0.33333333 </v>
   <v>       0.33333333       0.00000000       0.33333333 </v>
   <v>      -0.33333333       0.33333333       0.00000000 </v>
   <v>      -0.33333333       0.00000000       0.33333333 </v>
   <v>       0.00000000      -0.33333333       0.33333333 </v>
   <v>       0.33333333       0.33333333       0.33333333 </v>
   <v>      -0.33333333       0.33333333       0.33333333 </v>
   <v>      -0.33333333      -0.33333333       0.33333333 </v>
   <v>       0.33333333      -0.33333333       0.33333333 </v>
  </varray>
  <varray name="weights" >
   <v>       0.03703704 </v>
   <v>       0.07407407 </v>
   <v>       0.07407407 </v>
   <v>       0.07407407 </v>
   <v>       0.07407407 </v>
   <v>       0.07407407 </v>
   <v>       0.07407407 </v>
   <v>       0.07407407 </v>
   <v>       0.07407407 </v>
   <v>       0.07407407 </v>
   <v>       0.07407407 </v>
   <v>       0.07407407 </v>
   <v>       0.07407407 </v>
   <v>       0.07407407 </v>
  </varray>
 </kpoints>
 <parameters>
  <separator name="general" >
   <i type="string" name="SYSTEM">unknown system</i>
   <i type="logical" name="LCOMPAT"> F  </i>
  </separator>
  <separator name="electronic" >
   <i type="string" name="PREC">normal</i>
   <i name="ENMAX">    400.00000000</i>
   <i name="ENAUG">    644.87300000</i>
   <i name="EDIFF">      0.00000001</i>
   <i type="int" name="IALGO">    38</i>
   <i type="int" name="IWAVPR">    10</i>
   <i type="int" name="NBANDS">   168</i>
   <i type="int" name="NBANDSLOW">    -1</i>
   <i type="int" name="NBANDSHIGH">    -1</i>
   <i name="NELECT">    256.00000000</i>
   <i type="int" name="TURBO">     0</i>
   <i type="int" name="IRESTART">     0</i>
   <i type="int" name="NREBOOT">     0</i>
   <i type="int" name="NMIN">     0</i>
   <i name="EREF">      0.00000000</i>
   <separator name="electronic smearing" >
    <i type="int" name="ISMEAR">     1</i>
    <i name="SIGMA">      0.20000000</i>
    <i name="KSPACING">      0.50000000</i>
    <i type="logical" name="KGAMMA"> T  </i>
    <i type="logical" name="KBLOWUP"> T  </i>
   </separator>
   <separator name="electronic projectors" >
    <i type="logical" name="LREAL"> F  </i>
    <v name="ROPT">      0.00000000      0.00000000</v>
    <i type="int" name="LMAXPAW">  -100</i>
    <i type="int" name="LMAXMIX">     2</i>
    <i type="logical" name="NLSPLINE"> F  </i>
   </separator>
   <separator name="electronic startup" >
    <i type="int" name="ISTART">     0</i>
    <i type="int" name="ICHARG">     2</i>
    <i type="int" name="INIWAV">     1</i>
   </separator>
   <separator name="electronic spin" >
    <i type="int" name="ISPIN">     1</i>
    <i type="logical" name="LNONCOLLINEAR"> F  </i>
    <v name="MAGMOM">      1.00000000      1.00000000      1.00000000      1.00000000      1.00000000      1.00000000      1.00000000      1.00000000      1.00000000      1.00000000      1.00000000      1.00000000      1.00000000      1.00000000      1.00000000      1.00000000      1.00000000      1.00000000      1.00000000      1.00000000
      1.00000000      1.00000000      1.00000000      1.00000000      1.00000000      1.00000000      1.00000000      1.00000000      1.00000000      1.00000000      1.00000000      1.00000000      1.00000000      1.00000000      1.00000000      1.00000000      1.00000000      1.00000000      1.00000000      1.00000000
      1.00000000      1.00000000      1.00000000      1.00000000      1.00000000      1.00000000      1.00000000      1.00000000      1.00000000      1.00000000      1.00000000      1.00000000      1.00000000      1.00000000      1.00000000      1.00000000      1.00000000      1.00000000      1.00000000      1.00000000
      1.00000000      1.00000000      1.00000000      1.00000000</v>
    <i name="NUPDOWN">     -1.00000000</i>
    <i type="logical" name="LSORBIT"> F  </i>
    <v name="SAXIS">      0.00000000      0.00000000      1.00000000</v>
    <i type="logical" name="LSPIRAL"> F  </i>
    <v name="QSPIRAL">      0.00000000      0.00000000      0.00000000</v>
    <i type="logical" name="LZEROZ"> F  </i>
   </separator>
   <separator name="electronic exchange-correlation" >
    <i type="logical" name="LASPH"> F  </i>
    <i type="logical" name="LMETAGGA"> F  </i>
   </separator>
   <separator name="electronic convergence" >
    <i type="int" name="NELM">    60</i>
    <i type="int" name="NELMDL">    -5</i>
    <i type="int" name="NELMIN">     2</i>
    <i name="ENINI">    400.00000000</i>
    <separator name="electronic convergence detail" >
     <i type="logical" name="LDIAG"> T  </i>
     <i type="logical" name="LSUBROT"> F  </i>
     <i name="WEIMIN">      0.00000000</i>
     <i name="EBREAK">      0.00000000</i>
     <i name="DEPER">      0.30000000</i>
     <i type="int" name="NRMM">     4</i>
     <i name="TIME">      0.40000000</i>
    </separator>
   </separator>
   <separator name="electronic mixer" >
    <i name="AMIX">      0.40000000</i>
    <i name="BMIX">      1.00000000</i>
    <i name="AMIN">      0.10000000</i>
    <i name="AMIX_MAG">      1.60000000</i>
    <i name="BMIX_MAG">      1.00000000</i>
    <separator name="electronic mixer details" >
     <i type="int" name="IMIX">     4</i>
     <i type="logical" name="MIXFIRST"> F  </i>
     <i type="int" name="MAXMIX">   -45</i>
     <i name="WC">    100.00000000</i>
     <i type="int" name="INIMIX">     1</i>
     <i type="int" name="MIXPRE">     1</i>
     <i type="int" name="MREMOVE">     5</i>
    </separator>
   </separator>
   <separator name="electronic dipolcorrection" >
    <i type="logical" name="LDIPOL"> F  </i>
    <i type="logical" name="LMONO"> F  </i>
    <i type="int" name="IDIPOL">     0</i>
    <i name="EPSILON">      1.00000000</i>
    <v name="DIPOL">   -100.00000000   -100.00000000   -100.00000000</v>
    <i name="EFIELD">      0.00000000</i>
   </separator>
  </separator>
  <separator name="grids" >
   <i type="int" name="NGX">    48</i>
   <i type="int" name="NGY">    48</i>
   <i type="int" name="NGZ">    48</i>
   <i type="int" name="NGXF">    96</i>
   <i type="int" name="NGYF">    96</i>
   <i type="int" name="NGZF">    96</i>
   <i type="logical" name="ADDGRID"> F  </i>
  </separator>
  <separator name="ionic" >
   <i type="int" name="NSW">     0</i>
   <i type="int" name="IBRION">    -1</i>
   <i type="int" name="MDALGO">     0</i>
   <i type="int" name="ISIF">     3</i>
   <i name="PSTRESS">      0.00000000</i>
   <i name="EDIFFG">      0.00000010</i>
   <i type="int" name="NFREE">     0</i>
   <i name="POTIM">      0.50000000</i>
   <i name="SMASS">     -3.00000000</i>
   <i name="SCALEE">      1.00000000</i>
  </separator>
  <separator name="ionic md" >
   <i name="TEBEG">      0.00010000</i>
   <i name="TEEND">      0.00010000</i>
   <i type="int" name="NBLOCK">     1</i>
   <i type="int" name="KBLOCK">     1</i>
   <i type="int" name="NPACO">   256</i>
   <i name="APACO">     16.00000000</i>
  </separator>
  <separator name="symmetry" >
   <i type="int" name="ISYM">     0</i>
   <i name="SYMPREC">      0.00001000</i>
  </separator>
  <separator name="dos" >
   <i type="int" name="LORBIT">     0</i>
   <v name="RWIGS">     -1.00000000     -1.00000000</v>
   <i type="int" name="NEDOS">   301</i>
   <i name="EMIN">     10.00000000</i>
   <i name="EMAX">    -10.00000000</i>
   <i name="EFERMI">      0.00000000</i>
  </separator>
  <separator name="writing" >
   <i type="int" name="NWRITE">     2</i>
   <i type="logical" name="LWAVE"> F  </i>
   <i type="logical" name="LDOWNSAMPLE"> F  </i>
   <i type="logical" name="LCHARG"> F  </i>
   <i type="logical" name="LPARD"> F  </i>
   <i type="logical" name="LVTOT"> F  </i>
   <i type="logical" name="LVHAR"> F  </i>
   <i type="logical" name="LELF"> F  </i>
   <i type="logical" name="LOPTICS"> F  </i>
   <v name="STM">      0.00000000      0.00000000      0.00000000      0.00000000      0.00000000      0.00000000      0.00000000</v>
  </separator>
  <separator name="performance" >
   <i type="int" name="NPAR">     8</i>
   <i type="int" name="NSIM">     4</i>
   <i type="int" name="NBLK">    -1</i>
   <i type="logical" name="LPLANE"> T  </i>
   <i type="logical" name="LSCALAPACK"> T  </i>
   <i type="logical" name="LSCAAWARE"> F  </i>
   <i type="logical" name="LSCALU"> F  </i>
   <i type="logical" name="LASYNC"> F  </i>
   <i type="logical" name="LORBITALREAL"> F  </i>
  </separator>
  <separator name="miscellaneous" >
   <i type="int" name="IDIOT">     3</i>
   <i type="int" name="PHON_NSTRUCT">    -1</i>
   <i type="logical" name="LMUSIC"> F  </i>
   <v name="POMASS">     12.01100000     28.08500000</v>
   <v name="DARWINR">      0.00000000      0.00000000</v>
   <v name="DARWINV">      1.00000000      1.00000000</v>
   <i type="logical" name="LCORR"> T  </i>
  </separator>
  <i type="logical" name="GGA_COMPAT"> T  </i>
  <i type="logical" name="LBERRY"> F  </i>
  <i type="int" name="ICORELEVEL">     0</i>
  <i type="logical" name="LDAU"> F  </i>
  <i type="int" name="I_CONSTRAINED_M">     0</i>
  <separator name="electronic exchange-correlation" >
   <i type="string" name="GGA">PE</i>
   <i type="int" name="VOSKOWN">     0</i>
   <i type="logical" name="LHFCALC"> F  </i>
   <i type="string" name="PRECFOCK"></i>
   <i type="logical" name="LSYMGRAD"> F  </i>
   <i type="logical" name="LHFONE"> F  </i>
   <i type="logical" name="LRHFCALC"> F  </i>
   <i type="logical" name="LTHOMAS"> F  </i>
   <i type="logical" name="LMODELHF"> F  </i>
   <i type="logical" name="LFOCKACE"> F  </i>
   <i name="ENCUT4O">     -1.00000000</i>
   <i type="int" name="EXXOEP">     0</i>
   <i type="int" name="FOURORBIT">     0</i>
   <i name="AEXX">      0.00000000</i>
   <i name="HFALPHA">      0.00000000</i>
   <i name="MCALPHA">      0.00000000</i>
   <i name="ALDAX">      1.00000000</i>
   <i name="AGGAX">      1.00000000</i>
   <i name="ALDAC">      1.00000000</i>
   <i name="AGGAC">      1.00000000</i>
   <i type="int" name="NKREDX">     1</i>
   <i type="int" name="NKREDY">     1</i>
   <i type="int" name="NKREDZ">     1</i>
   <i type="logical" name="SHIFTRED"> F  </i>
   <i type="logical" name="ODDONLY"> F  </i>
   <i type="logical" name="EVENONLY"> F  </i>
   <i type="int" name="LMAXFOCK">     0</i>
   <i type="int" name="NMAXFOCKAE">     0</i>
   <i type="logical" name="LFOCKAEDFT"> F  </i>
   <i name="HFSCREEN">      0.00000000</i>
   <i name="HFSCREENC">      0.00000000</i>
   <i type="int" name="NBANDSGWLOW">     0</i>
  </separator>
  <separator name="vdW DFT" >
   <i type="logical" name="LUSE_VDW"> F  </i>
   <i name="Zab_VDW">     -0.84910000</i>
   <i name="PARAM1">      0.12340000</i>
   <i name="PARAM2">      1.00000000</i>
   <i name="PARAM3">      0.00000000</i>
  </separator>
  <separator name="model GW" >
   <i type="int" name="MODEL_GW">     0</i>
   <i name="MODEL_EPS0">      6.26613487</i>
   <i name="MODEL_ALPHA">      1.00000000</i>
  </separator>
  <separator name="linear response parameters" >
   <i type="logical" name="LEPSILON"> F  </i>
   <i type="logical" name="LRPA"> F  </i>
   <i type="logical" name="LNABLA"> F  </i>
   <i type="logical" name="LVEL"> F  </i>
   <i type="int" name="KINTER">     0</i>
   <i name="CSHIFT">      0.10000000</i>
   <i name="OMEGAMAX">     -1.00000000</i>
   <i name="DEG_THRESHOLD">      0.00200000</i>
   <i name="RTIME">     -0.10000000</i>
   <i name="WPLASMAI">      0.00000000</i>
   <v name="DFIELD">      0.00000000      0.00000000      0.00000000</v>
   <v name="WPLASMA">      0.00000000      0.00000000      0.00000000      0.00000000      0.00000000      0.00000000      0.00000000      0.00000000      0.00000000</v>
  </separator>
  <separator name="orbital magnetization" >
   <i type="logical" name="NUCIND"> F  </i>
   <v name="MAGPOS">      0.00000000      0.00000000      0.00000000</v>
   <i type="logical" name="LNICSALL"> T  </i>
   <i type="logical" name="ORBITALMAG"> F  </i>
   <i type="logical" name="LMAGBLOCH"> F  </i>
   <i type="logical" name="LCHIMAG"> F  </i>
   <i type="logical" name="LGAUGE"> T  </i>
   <i type="int" name="MAGATOM">     0</i>
   <v name="MAGDIPOL">      0.00000000      0.00000000      0.00000000</v>
   <v name="AVECCONST">      0.00000000      0.00000000      0.00000000</v>
  </separator>
  <separator name="response functions" >
   <i type="logical" name="LFINITE_TEMPERATURE"> F  </i>
   <i type="logical" name="LADDER"> F  </i>
   <i type="logical" name="LRPAFORCE"> F  </i>
   <i type="logical" name="LFXC"> F  </i>
   <i type="logical" name="LHARTREE"> T  </i>
   <i type="int" name="IBSE">     0</i>
   <v type="int" name="KPOINT">    -1     0     0     0</v>
   <i type="logical" name="LTCTC"> F  </i>
   <i type="logical" name="LTCTE"> F  </i>
   <i type="logical" name="LTETE"> F  </i>
   <i type="logical" name="LTRIPLET"> F  </i>
   <i type="logical" name="LFXCEPS"> F  </i>
   <i type="logical" name="LFXHEG"> F  </i>
   <i type="int" name="NATURALO">     2</i>
   <i type="logical" name="LHOLEGF"> F  </i>
   <i type="logical" name="L2ORDER"> F  </i>
   <i type="logical" name="LDMP1"> F  </i>
   <i type="logical" name="LMP2LT"> F  </i>
   <i type="logical" name="LSMP2LT"> F  </i>
   <i type="logical" name="LGWLF"> F  </i>
   <i name="ENCUTGW">     -2.00000000</i>
   <i name="ENCUTGWSOFT">     -2.00000000</i>
   <i name="ENCUTLF">     -1.00000000</i>
   <i type="logical" name="LESF_SPLINES"> F  </i>
   <i type="int" name="LMAXMP2">    -1</i>
   <i name="SCISSOR">      0.00000000</i>
   <i type="int" name="NOMEGA">     0</i>
   <i type="int" name="NOMEGAR">     0</i>
   <i type="int" name="NBANDSGW">    -1</i>
   <i type="int" name="NBANDSO">    -1</i>
   <i type="int" name="NBANDSV">    -1</i>
   <i type="int" name="NELM">    60</i>
   <i type="int" name="NELMHF">     1</i>
   <i type="int" name="DIM">     3</i>
   <i type="int" name="IESPILON">     4</i>
   <i type="int" name="ANTIRES">     0</i>
   <i name="OMEGAMAX">    -30.00000000</i>
   <i name="OMEGAMIN">    -30.00000000</i>
   <i name="OMEGATL">   -200.00000000</i>
   <i type="int" name="OMEGAGRID">     0</i>
   <i name="CSHIFT">     -0.10000000</i>
   <i type="logical" name="LSELFENERGY"> F  </i>
   <i type="logical" name="LSPECTRAL"> F  </i>
   <i type="logical" name="LSPECTRALGW"> F  </i>
   <i type="logical" name="LSINGLES"> F  </i>
   <i type="logical" name="LFERMIGW"> F  </i>
   <i type="logical" name="ODDONLYGW"> F  </i>
   <i type="logical" name="EVENONLYGW"> F  </i>
   <i type="int" name="NKREDLFX">     1</i>
   <i type="int" name="NKREDLFY">     1</i>
   <i type="int" name="NKREDLFZ">     1</i>
   <i type="int" name="MAXMEM">  2800</i>
   <i type="int" name="TELESCOPE">     0</i>
   <i type="int" name="NTAUPAR">    -1</i>
   <i type="int" name="NOMEGAPAR">    -1</i>
   <i name="DAMP_NEWTON">      0.80000001</i>
   <i name="LAMBDA">      1.00000000</i>
  </separator>
  <separator name="External order field" >
   <i name="OFIELD_KAPPA">      0.00000000</i>
   <v name="OFIELD_K">      0.00000000      0.00000000      0.00000000</v>
   <i name="OFIELD_Q6_NEAR">      0.00000000</i>
   <i name="OFIELD_Q6_FAR">      0.00000000</i>
   <i name="OFIELD_A">      0.00000000</i>
  </separator>
 </parameters>
 <atominfo>
  <atoms>      64 </atoms>
  <types>       2 </types>
  <array name="atoms" >
   <dimension dim="1">ion</dimension>
   <field type="string">element</field>
   <field type="int">atomtype</field>
   <set>
    <rc><c>C </c><c>   1</c></rc>
    <rc><c>C </c><c>   1</c></rc>
    <rc><c>C </c><c>   1</c></rc>
    <rc><c>C </c><c>   1</c></rc>
    <rc><c>C </c><c>   1</c></rc>
    <rc><c>C </c><c>   1</c></rc>
    <rc><c>C </c><c>   1</c></rc>
    <rc><c>C </c><c>   1</c></rc>
    <rc><c>C </c><c>   1</c></rc>
    <rc><c>C </c><c>   1</c></rc>
    <rc><c>C </c><c>   1</c></rc>
    <rc><c>C </c><c>   1</c></rc>
    <rc><c>C </c><c>   1</c></rc>
    <rc><c>C </c><c>   1</c></rc>
    <rc><c>C </c><c>   1</c></rc>
    <rc><c>C </c><c>   1</c></rc>
    <rc><c>C </c><c>   1</c></rc>
    <rc><c>C </c><c>   1</c></rc>
    <rc><c>C </c><c>   1</c></rc>
    <rc><c>C </c><c>   1</c></rc>
    <rc><c>C </c><c>   1</c></rc>
    <rc><c>C </c><c>   1</c></rc>
    <rc><c>C </c><c>   1</c></rc>
    <rc><c>C </c><c>   1</c></rc>
    <rc><c>C </c><c>   1</c></rc>
    <rc><c>C </c><c>   1</c></rc>
    <rc><c>C </c><c>   1</c></rc>
    <rc><c>C </c><c>   1</c></rc>
    <rc><c>C </c><c>   1</c></rc>
    <rc><c>C </c><c>   1</c></rc>
    <rc><c>C </c><c>   1</c></rc>
    <rc><c>C </c><c>   1</c></rc>
    <rc><c>Si</c><c>   2</c></rc>
    <rc><c>Si</c><c>   2</c></rc>
    <rc><c>Si</c><c>   2</c></rc>
    <rc><c>Si</c><c>   2</c></rc>
    <rc><c>Si</c><c>   2</c></rc>
    <rc><c>Si</c><c>   2</c></rc>
    <rc><c>Si</c><c>   2</c></rc>
    <rc><c>Si</c><c>   2</c></rc>
    <rc><c>Si</c><c>   2</c></rc>
    <rc><c>Si</c><c>   2</c></rc>
    <rc><c>Si</c><c>   2</c></rc>
    <rc><c>Si</c><c>   2</c></rc>
    <rc><c>Si</c><c>   2</c></rc>
    <rc><c>Si</c><c>   2</c></rc>
    <rc><c>Si</c><c>   2</c></rc>
    <rc><c>Si</c><c>   2</c></rc>
    <rc><c>Si</c><c>   2</c></rc>
    <rc><c>Si</c><c>   2</c></rc>
    <rc><c>Si</c><c>   2</c></rc>
    <rc><c>Si</c><c>   2</c></rc>
    <rc><c>Si</c><c>   2</c></rc>
    <rc><c>Si</c><c>   2</c></rc>
    <rc><c>Si</c><c>   2</c></rc>
    <rc><c>Si</c><c>   2</c></rc>
    <rc><c>Si</c><c>   2</c></rc>
    <rc><c>Si</c><c>   2</c></rc>
    <rc><c>Si</c><c>   2</c></rc>
    <rc><c>Si</c><c>   2</c></rc>
    <rc><c>Si</c><c>   2</c></rc>
    <rc><c>Si</c><c>   2</c></rc>
    <rc><c>Si</c><c>   2</c></rc>
    <rc><c>Si</c><c>   2</c></rc>
   </set>
  </array>
  <array name="atomtypes" >
   <dimension dim="1">type</dimension>
   <field type="int">atomspertype</field>
   <field type="string">element</field>
   <field>mass</field>
   <field>valence</field>
   <field type="string">pseudopotential</field>
   <set>
    <rc><c>  32</c><c>C </c><c>     12.01100000</c><c>      4.00000000</c><c>  PAW_PBE C 08Apr2002                   </c></rc>
    <rc><c>  32</c><c>Si</c><c>     28.08500000</c><c>      4.00000000</c><c>  PAW_PBE Si 05Jan2001                  </c></rc>
   </set>
  </array>
 </atominfo>
 <structure name="initialpos" >
  <crystal>
   <varray name="basis" >
    <v>       8.74331558       0.00000000       0.00000000 </v>
    <v>       0.00000000       8.74331558       0.00000000 </v>
    <v>       0.00000000       0.00000000       8.74331558 </v>
   </varray>
   <i name="volume">    668.38771987 </i>
   <varray name="rec_basis" >
    <v>       0.11437309       0.00000000       0.00000000 </v>
    <v>       0.00000000       0.11437309       0.00000000 </v>
    <v>       0.00000000       0.00000000       0.11437309 </v>
   </varray>
  </crystal>
  <varray name="positions" >
   <v>       0.12499835       0.11893183       0.12717490 </v>
   <v>       0.11907999       0.37162801       0.37171087 </v>
   <v>       0.37555079       0.12494005       0.37640580 </v>
   <v>       0.37258207       0.38016385       0.12933047 </v>
   <v>       0.12945430       0.12282961       0.62129568 </v>
   <v>       0.12868049       0.37542314       0.87827426 </v>
   <v>       0.37356780       0.12194853       0.87283465 </v>
   <v>       0.37628966       0.37571965       0.62309169 </v>
   <v>       0.12098932       0.62292213       0.13271412 </v>
   <v>       0.12166312       0.87569011       0.37149304 </v>
   <v>       0.37319015       0.62093142       0.37456073 </v>
   <v>       0.37336530       0.87793938       0.12786504 </v>
   <v>       0.13022133       0.62054140       0.62389879 </v>
   <v>       0.12513728       0.87575768       0.87405894 </v>
   <v>       0.37486024       0.62140349       0.87906298 </v>
   <v>       0.37551688       0.87618039       0.62651593 </v>
   <v>       0.62449489       0.12499808       0.12447864 </v>
   <v>       0.62853404       0.36766493       0.37257886 </v>
   <v>       0.87935251       0.12603995       0.36920509 </v>
   <v>       0.87486170       0.37617489       0.12236663 </v>
   <v>       0.62655582       0.12475116       0.62391622 </v>
   <v>       0.61720256       0.37626922       0.87378169 </v>
   <v>       0.87670990       0.13545015       0.86971348 </v>
   <v>       0.87119309       0.37255518       0.61875109 </v>
   <v>       0.62746073       0.61737187       0.12485189 </v>
   <v>       0.62496094       0.87352036       0.37182933 </v>
   <v>       0.87556538       0.62014768       0.37385061 </v>
   <v>       0.87429804       0.87764347       0.12020915 </v>
   <v>       0.62577633       0.62059632       0.62624179 </v>
   <v>       0.62499209       0.88076686       0.87804618 </v>
   <v>       0.87254570       0.62636487       0.87415947 </v>
   <v>       0.87248214       0.87426282       0.62701587 </v>
   <v>       0.00925424       0.99976904       0.99893176 </v>
   <v>       0.99930703       0.24982450       0.24685816 </v>
   <v>       0.24799596       0.99756472       0.24780699 </v>
   <v>       0.25405037       0.24987016       0.99669953 </v>
   <v>       0.99702525       0.00271304       0.50173240 </v>
   <v>       0.99948789       0.24777298       0.75458030 </v>
   <v>       0.25293025       0.00363753       0.74845598 </v>
   <v>       0.24618201       0.24512356       0.50024885 </v>
   <v>       0.00017041       0.50288422       0.00345812 </v>
   <v>       0.00334315       0.75004655       0.25521160 </v>
   <v>       0.24548834       0.49852447       0.24645125 </v>
   <v>       0.25668679       0.74378520       0.99777984 </v>
   <v>       0.00166531       0.49721070       0.49849764 </v>
   <v>       0.00030375       0.74597331       0.74886366 </v>
   <v>       0.25093914       0.49768544       0.75274894 </v>
   <v>       0.25090646       0.74839818       0.50234317 </v>
   <v>       0.50140882       0.99773419       0.00067389 </v>
   <v>       0.50016382       0.24870177       0.24817973 </v>
   <v>       0.75351106       0.99858480       0.24827038 </v>
   <v>       0.74895334       0.25033975       0.99839375 </v>
   <v>       0.49921608       0.99966062       0.49717490 </v>
   <v>       0.49474875       0.24777531       0.75529674 </v>
   <v>       0.74869787       0.99675477       0.74864142 </v>
   <v>       0.75289974       0.24956728       0.50135864 </v>
   <v>       0.49922169       0.50058105       0.00257841 </v>
   <v>       0.49709672       0.74802880       0.25007855 </v>
   <v>       0.75001724       0.49962577       0.24878759 </v>
   <v>       0.74667972       0.74991702       0.99977266 </v>
   <v>       0.50372874       0.50118476       0.49962572 </v>
   <v>       0.50164048       0.75089279       0.75019511 </v>
   <v>       0.75208454       0.50040023       0.74903664 </v>
   <v>       0.75387288       0.74637170       0.49477067 </v>
  </varray>
 </structure>
 <calculation>
  <scstep>
   <time name="dav">   16.21   16.82</time>
   <time name="total">   16.47   17.10</time>
   <energy>
    <i name="alphaZ">    354.85177120 </i>
    <i name="ewald">  -9078.16162388 </i>
    <i name="hartreedc">   -673.31721299 </i>
    <i name="XCdc">    145.87718538 </i>
    <i name="pawpsdc">   6292.66707184 </i>
    <i name="pawaedc">  -5747.90303932 </i>
    <i name="eentropy">      0.01066196 </i>
    <i name="bandstr">   1369.65363767 </i>
    <i name="atom">   8006.17504320 </i>
    <i name="e_fr_energy">    669.85349506 </i>
    <i name="e_wo_entrp">    669.84283310 </i>
    <i name="e_0_energy">    669.84994107 </i>
   </energy>
  </scstep>
  <scstep>
   <time name="dav">   16.01   16.10</time>
   <time name="total">   16.01   16.10</time>
   <energy>
    <i name="e_fr_energy">   -461.51703792 </i>
    <i name="e_wo_entrp">   -461.53054079 </i>
    <i name="e_0_energy">   -461.52153888 </i>
   </energy>
  </scstep>
  <scstep>
   <time name="dav">   15.23   15.29</time>
   <time name="total">   15.24   15.29</time>
   <energy>
    <i name="e_fr_energy">   -537.26272112 </i>
    <i name="e_wo_entrp">   -537.28426401 </i>
    <i name="e_0_energy">   -537.26990208 </i>
   </energy>
  </scstep>
  <scstep>
   <time name="dav">   15.27   15.30</time>
   <time name="total">   15.27   15.31</time>
   <energy>
    <i name="e_fr_energy">   -538.95216657 </i>
    <i name="e_wo_entrp">   -538.97455240 </i>
    <i name="e_0_energy">   -538.95962851 </i>
   </energy>
  </scstep>
  <scstep>
   <time name="dav">   14.95   14.99</time>
   <time name="total">   15.18   15.21</time>
   <energy>
    <i name="e_fr_energy">   -539.00080149 </i>
    <i name="e_wo_entrp">   -539.02311691 </i>
    <i name="e_0_energy">   -539.00823996 </i>
   </energy>
  </scstep>
  <scstep>
   <time name="dav">   28.76   28.86</time>
   <time name="total">   29.37   29.52</time>
   <energy>
    <i name="e_fr_energy">   -482.04418901 </i>
    <i name="e_wo_entrp">   -482.05573125 </i>
    <i name="e_0_energy">   -482.04803642 </i>
   </energy>
  </scstep>
  <scstep>
   <time name="dav">   15.74   15.78</time>
   <time name="total">   16.19   16.23</time>
   <energy>
    <i name="e_fr_energy">   -480.69705778 </i>
    <i name="e_wo_entrp">   -480.70734799 </i>
    <i name="e_0_energy">   -480.70048785 </i>
   </energy>
  </scstep>
  <scstep>
   <time name="dav">   14.72   14.75</time>
   <time name="total">   15.06   15.10</time>
   <energy>
    <i name="e_fr_energy">   -480.46621768 </i>
    <i name="e_wo_entrp">   -480.47665941 </i>
    <i name="e_0_energy">   -480.46969826 </i>
   </energy>
  </scstep>
  <scstep>
   <time name="dav">   14.82   14.86</time>
   <time name="total">   15.51   15.59</time>
   <energy>
    <i name="e_fr_energy">   -480.44960267 </i>
    <i name="e_wo_entrp">   -480.45993244 </i>
    <i name="e_0_energy">   -480.45304592 </i>
   </energy>
  </scstep>
  <scstep>
   <time name="dav">   15.59   15.63</time>
   <time name="total">   15.99   16.02</time>
   <energy>
    <i name="e_fr_energy">   -480.45220612 </i>
    <i name="e_wo_entrp">   -480.46255152 </i>
    <i name="e_0_energy">   -480.45565458 </i>
   </energy>
  </scstep>
  <scstep>
   <time name="dav">   14.75   15.03</time>
   <time name="total">   15.34   15.77</time>
   <energy>
    <i name="e_fr_energy">   -480.45345387 </i>
    <i name="e_wo_entrp">   -480.46379704 </i>
    <i name="e_0_energy">   -480.45690160 </i>
   </energy>
  </scstep>
  <scstep>
   <time name="dav">   16.35   16.39</time>
   <time name="total">   16.72   16.76</time>
   <energy>
    <i name="e_fr_energy">   -480.45353327 </i>
    <i name="e_wo_entrp">   -480.46386945 </i>
    <i name="e_0_energy">   -480.45697866 </i>
   </energy>
  </scstep>
  <scstep>
   <time name="dav">   14.29   14.32</time>
   <time name="total">   14.88   14.96</time>
   <energy>
    <i name="e_fr_energy">   -480.45354858 </i>
    <i name="e_wo_entrp">   -480.46388749 </i>
    <i name="e_0_energy">   -480.45699488 </i>
   </energy>
  </scstep>
  <scstep>
   <time name="dav">   15.03   15.06</time>
   <time name="total">   15.40   15.43</time>
   <energy>
    <i name="e_fr_energy">   -480.45355305 </i>
    <i name="e_wo_entrp">   -480.46389120 </i>
    <i name="e_0_energy">   -480.45699910 </i>
   </energy>
  </scstep>
  <scstep>
   <time name="dav">   15.17   15.28</time>
   <time name="total">   15.54   15.66</time>
   <energy>
    <i name="e_fr_energy">   -480.45355491 </i>
    <i name="e_wo_entrp">   -480.46389303 </i>
    <i name="e_0_energy">   -480.45700095 </i>
   </energy>
  </scstep>
  <scstep>
   <time name="dav">   15.52   15.63</time>
   <time name="total">   15.89   16.00</time>
   <energy>
    <i name="e_fr_energy">   -480.45355487 </i>
    <i name="e_wo_entrp">   -480.46389317 </i>
    <i name="e_0_energy">   -480.45700097 </i>
   </energy>
  </scstep>
  <scstep>
   <time name="dav">   15.80   15.84</time>
   <time name="total">   16.43   16.67</time>
   <energy>
    <i name="e_fr_energy">   -480.45355531 </i>
    <i name="e_wo_entrp">   -480.46389353 </i>
    <i name="e_0_energy">   -480.45700138 </i>
   </energy>
  </scstep>
  <scstep>
   <time name="dav">    9.27    9.29</time>
   <time name="total">    9.64    9.66</time>
   <energy>
    <i name="e_fr_energy">   -480.45355536 </i>
    <i name="e_wo_entrp">   -480.46389356 </i>
    <i name="e_0_energy">   -480.45700142 </i>
   </energy>
  </scstep>
  <scstep>
   <time name="dav">    8.98    9.00</time>
   <time name="total">    9.35    9.37</time>
   <energy>
    <i name="e_fr_energy">   -480.45355534 </i>
    <i name="e_wo_entrp">   -480.46389352 </i>
    <i name="e_0_energy">   -480.45700140 </i>
   </energy>
  </scstep>
  <scstep>
   <time name="dav">   10.09   10.11</time>
   <time name="total">   10.39   10.42</time>
   <energy>
    <i name="alphaZ">    354.85177120 </i>
    <i name="ewald">  -9078.16162388 </i>
    <i name="hartreedc">  -1026.71753691 </i>
    <i name="XCdc">    179.34834894 </i>
    <i name="pawpsdc">  33131.74446108 </i>
    <i name="pawaedc"> -32592.71201672 </i>
    <i name="eentropy">      0.01033818 </i>
    <i name="bandstr">    545.00765956 </i>
    <i name="atom">   8006.17504320 </i>
    <i name="e_fr_energy">   -480.45355534 </i>
    <i name="e_wo_entrp">   -480.46389353 </i>
    <i name="e_0_energy">   -480.45700141 </i>
   </energy>
  </scstep>
  <structure>
   <crystal>
    <varray name="basis" >
     <v>       8.74331558       0.00000000       0.00000000 </v>
     <v>       0.00000000       8.74331558       0.00000000 </v>
     <v>       0.00000000       0.00000000       8.74331558 </v>
    </varray>
    <i name="volume">    668.38771987 </i>
    <varray name="rec_basis" >
     <v>       0.11437309       0.00000000       0.00000000 </v>
     <v>       0.00000000       0.11437309       0.00000000 </v>
     <v>       0.00000000       0.00000000       0.11437309 </v>
    </varray>
   </crystal>
   <varray name="positions" >
    <v>       0.12499835       0.11893183       0.12717490 </v>
    <v>       0.11907999       0.37162801       0.37171087 </v>
    <v>       0.37555079       0.12494005       0.37640580 </v>
    <v>       0.37258207       0.38016385       0.12933047 </v>
    <v>       0.12945430       0.12282961       0.62129568 </v>
    <v>       0.12868049       0.37542314       0.87827426 </v>
    <v>       0.37356780       0.12194853       0.87283465 </v>
    <v>       0.37628966       0.37571965       0.62309169 </v>
    <v>       0.12098932       0.62292213       0.13271412 </v>
    <v>       0.12166312       0.87569011       0.37149304 </v>
    <v>       0.37319015       0.62093142       0.37456073 </v>
    <v>       0.37336530       0.87793938       0.12786504 </v>
    <v>       0.13022133       0.62054140       0.62389879 </v>
    <v>       0.12513728       0.87575768       0.87405894 </v>
    <v>       0.37486024       0.62140349       0.87906298 </v>
    <v>       0.37551688       0.87618039       0.62651593 </v>
    <v>       0.62449489       0.12499808       0.12447864 </v>
    <v>       0.62853404       0.36766493       0.37257886 </v>
    <v>       0.87935251       0.12603995       0.36920509 </v>
    <v>       0.87486170       0.37617489       0.12236663 </v>
    <v>       0.62655582       0.12475116       0.62391622 </v>
    <v>       0.61720256       0.37626922       0.87378169 </v>
    <v>       0.87670990       0.13545015       0.86971348 </v>
    <v>       0.87119309       0.37255518       0.61875109 </v>
    <v>       0.62746073       0.61737187       0.12485189 </v>
    <v>       0.62496094       0.87352036       0.37182933 </v>
    <v>       0.87556538       0.62014768       0.37385061 </v>
    <v>       0.87429804       0.87764347       0.12020915 </v>
    <v>       0.62577633       0.62059632       0.62624179 </v>
    <v>       0.62499209       0.88076686       0.87804618 </v>
    <v>       0.87254570       0.62636487       0.87415947 </v>
    <v>       0.87248214       0.87426282       0.62701587 </v>
    <v>       0.00925424       0.99976904       0.99893176 </v>
    <v>       0.99930703       0.24982450       0.24685816 </v>
    <v>       0.24799596       0.99756472       0.24780699 </v>
    <v>       0.25405037       0.24987016       0.99669953 </v>
    <v>       0.99702525       0.00271304       0.50173240 </v>
    <v>       0.99948789       0.24777298       0.75458030 </v>
    <v>       0.25293025       0.00363753       0.74845598 </v>
    <v>       0.24618201       0.24512356       0.50024885 </v>
    <v>       0.00017041       0.50288422       0.00345812 </v>
    <v>       0.00334315       0.75004655       0.25521160 </v>
    <v>       0.24548834       0.49852447       0.24645125 </v>
    <v>       0.25668679       0.74378520       0.99777984 </v>
    <v>       0.00166531       0.49721070       0.49849764 </v>
    <v>       0.00030375       0.74597331       0.74886366 </v>
    <v>       0.25093914       0.49768544       0.75274894 </v>
    <v>       0.25090646       0.74839818       0.50234317 </v>
    <v>       0.50140882       0.99773419       0.00067389 </v>
    <v>       0.50016382       0.24870177       0.24817973 </v>
    <v>       0.75351106       0.99858480       0.24827038 </v>
    <v>       0.74895334       0.25033975       0.99839375 </v>
    <v>       0.49921608       0.99966062       0.49717490 </v>
    <v>       0.49474875       0.24777531       0.75529674 </v>
    <v>       0.74869787       0.99675477       0.74864142 </v>
    <v>       0.75289974       0.24956728       0.50135864 </v>
    <v>       0.49922169       0.50058105       0.00257841 </v>
    <v>       0.49709672       0.74802880       0.25007855 </v>
    <v>       0.75001724       0.49962577       0.24878759 </v>
    <v>       0.74667972       0.74991702       0.99977266 </v>
    <v>       0.50372874       0.50118476       0.49962572 </v>
    <v>       0.50164048       0.75089279       0.75019511 </v>
    <v>       0.75208454       0.50040023       0.74903664 </v>
    <v>       0.75387288       0.74637170       0.49477067 </v>
   </varray>
  </structure>
  <varray name="forces" >
   <v>       0.58428802       1.50775472      -0.70261402 </v>
   <v>       1.06175550       0.10850978       0.33660891 </v>
   <v>      -0.46850699      -0.30602193      -0.72328842 </v>
   <v>       0.47924256      -1.28259011      -1.00147273 </v>
   <v>      -1.22817128       0.09927597       1.18183881 </v>
   <v>      -0.75696694       0.05968243      -0.31726121 </v>
   <v>       0.36875025       0.20241099       0.90567889 </v>
   <v>      -0.50930090      -0.47299649       0.34017286 </v>
   <v>       0.73974647       0.70392281      -1.52665452 </v>
   <v>       0.71951326      -0.06043018       1.54996427 </v>
   <v>       0.12911034       0.47989007       0.02057065 </v>
   <v>       0.53192650      -1.15068293      -0.90257257 </v>
   <v>      -0.97296145       0.29664445       0.38815813 </v>
   <v>       0.82007538      -0.77085384      -0.43877821 </v>
   <v>       0.64948587       0.43013926      -0.93459313 </v>
   <v>       0.15530815      -0.34984329      -0.29217335 </v>
   <v>       0.14591834      -0.15599831      -0.24957819 </v>
   <v>      -0.35955184       1.21960368       0.25280508 </v>
   <v>      -0.86277485      -0.34799328       1.06296431 </v>
   <v>      -0.07173000      -0.26587056       0.05682980 </v>
   <v>      -0.48006276      -0.27365481       0.30849727 </v>
   <v>       1.08549012      -0.19105363       0.38194496 </v>
   <v>      -0.70368996      -2.61792754       1.33710732 </v>
   <v>       1.43510394       0.71678373       1.59886539 </v>
   <v>      -0.67968382       1.64379278      -0.04710339 </v>
   <v>       0.23258465      -0.16363661       0.21808931 </v>
   <v>       0.29154802       0.66235312       0.07657056 </v>
   <v>       0.55510725      -0.74814705       0.40807697 </v>
   <v>       0.22487252       1.21203127      -0.30982051 </v>
   <v>      -0.09687814      -1.38836200      -0.53041441 </v>
   <v>       0.48461133      -0.34805556       0.14784231 </v>
   <v>       0.55124154      -0.39800707      -0.64382419 </v>
   <v>      -1.87999985       0.13644715      -0.25098899 </v>
   <v>       0.03345997      -0.13316028      -0.34333566 </v>
   <v>       0.31085817       0.49858117       0.97923789 </v>
   <v>      -0.54298218      -0.19060628       1.29264789 </v>
   <v>       0.37737416      -0.54866114      -0.58419343 </v>
   <v>       0.94519236       1.34021210      -1.81330229 </v>
   <v>      -0.73488683      -1.19862960      -0.03628627 </v>
   <v>       0.95850042       1.41074235      -0.70110325 </v>
   <v>      -0.22483495      -0.37397789      -0.46634524 </v>
   <v>      -1.33561701       0.07091291      -1.12269516 </v>
   <v>       0.18204856      -0.20130275       1.52913462 </v>
   <v>      -1.71202387       1.35223137       1.05608087 </v>
   <v>      -0.24972879      -0.20301878       0.09919160 </v>
   <v>       0.23646680       0.61630475       0.02021810 </v>
   <v>       0.39736784      -0.17948559      -0.64758738 </v>
   <v>      -0.01891213       0.31939061      -0.66124619 </v>
   <v>      -0.53181246       0.72691920       0.43545796 </v>
   <v>      -0.20014078       0.19143948       0.47576002 </v>
   <v>      -0.45537104       0.27924114      -0.06679185 </v>
   <v>      -0.22262131       0.46041264      -0.09413529 </v>
   <v>       0.55764512       0.06308151       0.38115746 </v>
   <v>       1.00970929       0.47230265      -1.69595945 </v>
   <v>       0.31573552       1.31555880       0.19050983 </v>
   <v>      -0.66853264      -0.79701129      -0.98319546 </v>
   <v>       0.12087679      -0.62631994      -0.09755752 </v>
   <v>       0.44166762      -0.13756064      -0.03647531 </v>
   <v>       0.26271984      -1.01014072       0.30822746 </v>
   <v>       0.59196329       0.10619635       0.27209610 </v>
   <v>      -0.45025010      -1.13379796      -0.35687289 </v>
   <v>      -0.09138070      -0.22540075       0.07706132 </v>
   <v>      -0.62470961      -0.81498910       0.09703764 </v>
   <v>      -0.85318257       0.36341865       0.79181591 </v>
  </varray>
  <varray name="stress" >
   <v>       6.94158869       1.87275731      -1.90647479 </v>
   <v>       1.87275733       6.12088953       3.79769053 </v>
   <v>      -1.90647479       3.79769054       6.65681040 </v>
  </varray>
  <energy>
   <i name="e_fr_energy">   -480.45355534 </i>
   <i name="e_wo_entrp">   -480.46389353 </i>
   <i name="e_0_energy">   -480.45700141 </i>
  </energy>
  <time name="totalsc">  321.54  323.88</time>
  <eigenvalues>
   <array>
    <dimension dim="1">band</dimension>
    <dimension dim="2">kpoint</dimension>
    <dimension dim="3">spin</dimension>
    <field>eigene</field>
    <field>occ</field>
    <set>
     <set comment="spin 1">
      <set comment="kpoint 1">
       <r>   -7.3485    1.0000 </r>
       <r>   -5.8867    1.0000 </r>
       <r>   -5.8366    1.0000 </r>
       <r>   -5.7817    1.0000 </r>
       <r>   -5.7423    1.0000 </r>
       <r>   -5.7120    1.0000 </r>
       <r>   -5.6218    1.0000 </r>
       <r>   -4.5598    1.0000 </r>
       <r>   -4.4677    1.0000 </r>
       <r>   -4.4453    1.0000 </r>
       <r>   -4.4069    1.0000 </r>
       <r>   -4.3999    1.0000 </r>
       <r>   -4.3646    1.0000 </r>
       <r>   -4.3309    1.0000 </r>
       <r>   -4.3271    1.0000 </r>
       <r>   -4.2714    1.0000 </r>
       <r>   -4.2541    1.0000 </r>
       <r>   -4.2314    1.0000 </r>
       <r>   -4.1158    1.0000 </r>
       <r>   -3.8568    1.0000 </r>
       <r>   -3.8180    1.0000 </r>
       <r>   -3.7578    1.0000 </r>
       <r>   -3.7485    1.0000 </r>
       <r>   -2.4470    1.0000 </r>
       <r>   -2.3777    1.0000 </r>
       <r>   -2.3228    1.0000 </r>
       <r>   -2.2403    1.0000 </r>
       <r>   -2.1816    1.0000 </r>
       <r>   -2.1671    1.0000 </r>
       <r>   -2.1068    1.0000 </r>
       <r>   -2.0476    1.0000 </r>
       <r>   -2.0100    1.0000 </r>
       <r>   -0.5386    1.0000 </r>
       <r>   -0.5273    1.0000 </r>
       <r>   -0.4627    1.0000 </r>
       <r>   -0.4327    1.0000 </r>
       <r>    0.1968    1.0000 </r>
       <r>    0.2322    1.0000 </r>
       <r>    0.2592    1.0000 </r>
       <r>    0.9163    1.0000 </r>
       <r>    0.9401    1.0000 </r>
       <r>    0.9699    1.0000 </r>
       <r>    0.9840    1.0000 </r>
       <r>    1.0197    1.0000 </r>
       <r>    1.0609    1.0000 </r>
       <r>    1.9351    1.0000 </r>
       <r>    1.9665    1.0000 </r>
       <r>    1.9886    1.0000 </r>
       <r>    1.9965    1.0000 </r>
       <r>    2.0310    1.0000 </r>
       <r>    2.0436    1.0000 </r>
       <r>    2.0764    1.0000 </r>
       <r>    2.0835    1.0000 </r>
       <r>    2.1218    1.0000 </r>
       <r>    2.1707    1.0000 </r>
       <r>    2.1948    1.0000 </r>
       <r>    2.2588    1.0000 </r>
       <r>    2.9412    1.0000 </r>
       <r>    3.0084    1.0000 </r>
       <r>    3.0252    1.0000 </r>
       <r>    3.0428    1.0000 </r>
       <r>    3.0661    1.0000 </r>
       <r>    3.1467    1.0000 </r>
       <r>    3.2844    1.0000 </r>
       <r>    3.3031    1.0000 </r>
       <r>    3.3365    1.0000 </r>
       <r>    3.3486    1.0000 </r>
       <r>    3.3716    1.0000 </r>
       <r>    3.3973    1.0000 </r>
       <r>    3.5629    1.0000 </r>
       <r>    3.6037    1.0000 </r>
       <r>    3.6320    1.0000 </r>
       <r>    3.6458    1.0000 </r>
       <r>    3.6650    1.0000 </r>
       <r>    3.6702    1.0000 </r>
       <r>    3.6993    1.0000 </r>
       <r>    3.7217    1.0000 </r>
       <r>    3.7315    1.0000 </r>
       <r>    3.7500    1.0000 </r>
       <r>    3.7981    1.0000 </r>
       <r>    3.8250    1.0000 </r>
       <r>    4.5663    1.0000 </r>
       <r>    4.5926    1.0000 </r>
       <r>    4.6437    1.0000 </r>
       <r>    4.6726    1.0000 </r>
       <r>    4.6881    1.0000 </r>
       <r>    4.7183    1.0000 </r>
       <r>    4.8053    1.0000 </r>
       <r>    4.8218    1.0000 </r>
       <r>    4.8320    1.0000 </r>
       <r>    4.8451    1.0000 </r>
       <r>    4.8725    1.0000 </r>
       <r>    4.8989    1.0000 </r>
       <r>    5.9109    1.0000 </r>
       <r>    5.9636    1.0000 </r>
       <r>    5.9878    1.0000 </r>
       <r>    6.0161    1.0000 </r>
       <r>    6.0435    1.0000 </r>
       <r>    6.0571    1.0000 </r>
       <r>    6.0816    1.0000 </r>
       <r>    6.1146    1.0000 </r>
       <r>    6.1307    1.0000 </r>
       <r>    6.1438    1.0000 </r>
       <r>    6.1758    1.0000 </r>
       <r>    6.2341    1.0000 </r>
       <r>    6.6426    1.0000 </r>
       <r>    6.6837    1.0000 </r>
       <r>    6.7068    1.0000 </r>
       <r>    6.7235    1.0000 </r>
       <r>    6.7477    1.0000 </r>
       <r>    6.7897    1.0000 </r>
       <r>    6.8098    1.0000 </r>
       <r>    6.8329    1.0000 </r>
       <r>    6.8418    1.0000 </r>
       <r>    6.8891    1.0000 </r>
       <r>    6.9138    1.0000 </r>
       <r>    6.9278    1.0000 </r>
       <r>    6.9507    1.0000 </r>
       <r>    6.9753    1.0000 </r>
       <r>    7.0048    1.0000 </r>
       <r>    7.0167    1.0000 </r>
       <r>    7.0299    1.0000 </r>
       <r>    7.0633    1.0000 </r>
       <r>    7.0659    1.0000 </r>
       <r>    7.1335    1.0000 </r>
       <r>    7.9953    1.0040 </r>
       <r>    8.0222    0.9688 </r>
       <r>    8.0825    0.8260 </r>
       <r>    9.3006   -0.0000 </r>
       <r>    9.3587   -0.0000 </r>
       <r>    9.4246   -0.0000 </r>
       <r>   11.9011   -0.0000 </r>
       <r>   11.9263   -0.0000 </r>
       <r>   12.0073   -0.0000 </r>
       <r>   12.0255   -0.0000 </r>
       <r>   12.0340   -0.0000 </r>
       <r>   12.0989   -0.0000 </r>
       <r>   12.2008   -0.0000 </r>
       <r>   12.2608   -0.0000 </r>
       <r>   12.3280   -0.0000 </r>
       <r>   13.0336   -0.0000 </r>
       <r>   13.0650   -0.0000 </r>
       <r>   13.0831   -0.0000 </r>
       <r>   13.1173   -0.0000 </r>
       <r>   13.2008   -0.0000 </r>
       <r>   13.2178   -0.0000 </r>
       <r>   13.2832   -0.0000 </r>
       <r>   13.3030   -0.0000 </r>
       <r>   13.3175   -0.0000 </r>
       <r>   13.3465   -0.0000 </r>
       <r>   13.3619   -0.0000 </r>
       <r>   13.3953   -0.0000 </r>
       <r>   13.4155   -0.0000 </r>
       <r>   13.4371   -0.0000 </r>
       <r>   13.4724   -0.0000 </r>
       <r>   13.5045   -0.0000 </r>
       <r>   13.5206   -0.0000 </r>
       <r>   13.5636   -0.0000 </r>
       <r>   13.5678   -0.0000 </r>
       <r>   13.5852   -0.0000 </r>
       <r>   13.6005   -0.0000 </r>
       <r>   13.6784    0.0000 </r>
       <r>   14.0672    0.0000 </r>
       <r>   14.2019    0.0000 </r>
       <r>   14.2394    0.0000 </r>
       <r>   14.2560    0.0000 </r>
       <r>   14.2808    0.0000 </r>
       <r>   14.3129    0.0000 </r>
      </set>
      <set comment="kpoint 2">
       <r>   -7.1708    1.0000 </r>
       <r>   -6.6371    1.0000 </r>
       <r>   -5.6877    1.0000 </r>
       <r>   -5.6110    1.0000 </r>
       <r>   -5.5800    1.0000 </r>
       <r>   -5.5339    1.0000 </r>
       <r>   -5.1882    1.0000 </r>
       <r>   -5.1161    1.0000 </r>
       <r>   -5.0983    1.0000 </r>
       <r>   -5.0483    1.0000 </r>
       <r>   -4.5929    1.0000 </r>
       <r>   -4.3263    1.0000 </r>
       <r>   -4.3018    1.0000 </r>
       <r>   -4.1994    1.0000 </r>
       <r>   -4.1465    1.0000 </r>
       <r>   -4.0415    1.0000 </r>
       <r>   -3.9995    1.0000 </r>
       <r>   -3.9383    1.0000 </r>
       <r>   -3.8885    1.0000 </r>
       <r>   -3.4487    1.0000 </r>
       <r>   -3.4091    1.0000 </r>
       <r>   -3.3963    1.0000 </r>
       <r>   -3.3464    1.0000 </r>
       <r>   -3.2001    1.0000 </r>
       <r>   -2.5865    1.0000 </r>
       <r>   -2.5460    1.0000 </r>
       <r>   -2.5309    1.0000 </r>
       <r>   -2.4428    1.0000 </r>
       <r>   -2.3107    1.0000 </r>
       <r>   -2.2937    1.0000 </r>
       <r>   -2.1765    1.0000 </r>
       <r>   -2.1484    1.0000 </r>
       <r>   -0.0937    1.0000 </r>
       <r>   -0.0780    1.0000 </r>
       <r>   -0.0006    1.0000 </r>
       <r>    0.0456    1.0000 </r>
       <r>    0.3585    1.0000 </r>
       <r>    0.3758    1.0000 </r>
       <r>    0.7055    1.0000 </r>
       <r>    0.7242    1.0000 </r>
       <r>    0.9678    1.0000 </r>
       <r>    0.9815    1.0000 </r>
       <r>    1.0132    1.0000 </r>
       <r>    1.0519    1.0000 </r>
       <r>    1.0756    1.0000 </r>
       <r>    1.0907    1.0000 </r>
       <r>    1.1515    1.0000 </r>
       <r>    1.2152    1.0000 </r>
       <r>    1.2453    1.0000 </r>
       <r>    1.3767    1.0000 </r>
       <r>    1.4115    1.0000 </r>
       <r>    1.4268    1.0000 </r>
       <r>    1.4854    1.0000 </r>
       <r>    2.6621    1.0000 </r>
       <r>    2.6898    1.0000 </r>
       <r>    2.7129    1.0000 </r>
       <r>    2.7351    1.0000 </r>
       <r>    2.8719    1.0000 </r>
       <r>    2.9121    1.0000 </r>
       <r>    2.9422    1.0000 </r>
       <r>    2.9617    1.0000 </r>
       <r>    2.9951    1.0000 </r>
       <r>    3.0122    1.0000 </r>
       <r>    3.0270    1.0000 </r>
       <r>    3.0530    1.0000 </r>
       <r>    3.1025    1.0000 </r>
       <r>    3.5012    1.0000 </r>
       <r>    3.5197    1.0000 </r>
       <r>    3.6496    1.0000 </r>
       <r>    3.6584    1.0000 </r>
       <r>    3.9788    1.0000 </r>
       <r>    4.0114    1.0000 </r>
       <r>    4.0310    1.0000 </r>
       <r>    4.0831    1.0000 </r>
       <r>    4.3033    1.0000 </r>
       <r>    4.3279    1.0000 </r>
       <r>    4.3609    1.0000 </r>
       <r>    4.4027    1.0000 </r>
       <r>    4.4193    1.0000 </r>
       <r>    4.4449    1.0000 </r>
       <r>    4.4544    1.0000 </r>
       <r>    4.4815    1.0000 </r>
       <r>    4.5766    1.0000 </r>
       <r>    4.6247    1.0000 </r>
       <r>    4.6667    1.0000 </r>
       <r>    4.6921    1.0000 </r>
       <r>    4.7610    1.0000 </r>
       <r>    4.7849    1.0000 </r>
       <r>    4.8692    1.0000 </r>
       <r>    4.9263    1.0000 </r>
       <r>    4.9823    1.0000 </r>
       <r>    5.0215    1.0000 </r>
       <r>    5.3737    1.0000 </r>
       <r>    5.4085    1.0000 </r>
       <r>    5.5501    1.0000 </r>
       <r>    5.6080    1.0000 </r>
       <r>    5.6314    1.0000 </r>
       <r>    5.6695    1.0000 </r>
       <r>    5.8358    1.0000 </r>
       <r>    5.8875    1.0000 </r>
       <r>    5.8977    1.0000 </r>
       <r>    5.9294    1.0000 </r>
       <r>    6.1729    1.0000 </r>
       <r>    6.2071    1.0000 </r>
       <r>    6.2337    1.0000 </r>
       <r>    6.3021    1.0000 </r>
       <r>    6.3535    1.0000 </r>
       <r>    6.4405    1.0000 </r>
       <r>    6.4637    1.0000 </r>
       <r>    6.4942    1.0000 </r>
       <r>    6.5675    1.0000 </r>
       <r>    6.7498    1.0000 </r>
       <r>    6.7714    1.0000 </r>
       <r>    6.7994    1.0000 </r>
       <r>    6.8441    1.0000 </r>
       <r>    6.8461    1.0000 </r>
       <r>    6.8768    1.0000 </r>
       <r>    6.9079    1.0000 </r>
       <r>    6.9324    1.0000 </r>
       <r>    6.9454    1.0000 </r>
       <r>    6.9714    1.0000 </r>
       <r>    6.9989    1.0000 </r>
       <r>    7.0261    1.0000 </r>
       <r>    7.0627    1.0000 </r>
       <r>    7.0862    1.0000 </r>
       <r>    7.4963    1.0000 </r>
       <r>    7.6637    1.0011 </r>
       <r>    7.7339    1.0045 </r>
       <r>    9.6725   -0.0000 </r>
       <r>   10.1896   -0.0000 </r>
       <r>   10.2127   -0.0000 </r>
       <r>   10.6137   -0.0000 </r>
       <r>   11.9362   -0.0000 </r>
       <r>   11.9574   -0.0000 </r>
       <r>   12.4426   -0.0000 </r>
       <r>   12.5496   -0.0000 </r>
       <r>   12.5877   -0.0000 </r>
       <r>   12.6620   -0.0000 </r>
       <r>   12.7195   -0.0000 </r>
       <r>   12.8908   -0.0000 </r>
       <r>   12.9000   -0.0000 </r>
       <r>   12.9407   -0.0000 </r>
       <r>   12.9827   -0.0000 </r>
       <r>   13.0214   -0.0000 </r>
       <r>   13.0507   -0.0000 </r>
       <r>   13.0662   -0.0000 </r>
       <r>   13.0871   -0.0000 </r>
       <r>   13.1172   -0.0000 </r>
       <r>   13.1751   -0.0000 </r>
       <r>   13.2480   -0.0000 </r>
       <r>   13.4687   -0.0000 </r>
       <r>   13.5359   -0.0000 </r>
       <r>   13.6072   -0.0000 </r>
       <r>   13.6380    0.0000 </r>
       <r>   13.6518    0.0000 </r>
       <r>   13.6669    0.0000 </r>
       <r>   13.6932    0.0000 </r>
       <r>   13.7183    0.0000 </r>
       <r>   13.7292    0.0000 </r>
       <r>   13.8989    0.0000 </r>
       <r>   13.9342    0.0000 </r>
       <r>   14.0003    0.0000 </r>
       <r>   14.0712    0.0000 </r>
       <r>   14.4422    0.0000 </r>
       <r>   14.7189    0.0000 </r>
       <r>   14.7810    0.0000 </r>
       <r>   14.8241    0.0000 </r>
       <r>   14.8621    0.0000 </r>
      </set>
      <set comment="kpoint 3">
       <r>   -7.1698    1.0000 </r>
       <r>   -6.6379    1.0000 </r>
       <r>   -5.7090    1.0000 </r>
       <r>   -5.6077    1.0000 </r>
       <r>   -5.5964    1.0000 </r>
       <r>   -5.4867    1.0000 </r>
       <r>   -5.2229    1.0000 </r>
       <r>   -5.1193    1.0000 </r>
       <r>   -5.1096    1.0000 </r>
       <r>   -5.0048    1.0000 </r>
       <r>   -4.6018    1.0000 </r>
       <r>   -4.3031    1.0000 </r>
       <r>   -4.2724    1.0000 </r>
       <r>   -4.2034    1.0000 </r>
       <r>   -4.1912    1.0000 </r>
       <r>   -4.0360    1.0000 </r>
       <r>   -3.9891    1.0000 </r>
       <r>   -3.9300    1.0000 </r>
       <r>   -3.9138    1.0000 </r>
       <r>   -3.4907    1.0000 </r>
       <r>   -3.4136    1.0000 </r>
       <r>   -3.3888    1.0000 </r>
       <r>   -3.2949    1.0000 </r>
       <r>   -3.2165    1.0000 </r>
       <r>   -2.6182    1.0000 </r>
       <r>   -2.5265    1.0000 </r>
       <r>   -2.5147    1.0000 </r>
       <r>   -2.4248    1.0000 </r>
       <r>   -2.3603    1.0000 </r>
       <r>   -2.2640    1.0000 </r>
       <r>   -2.2098    1.0000 </r>
       <r>   -2.1154    1.0000 </r>
       <r>   -0.0785    1.0000 </r>
       <r>   -0.0688    1.0000 </r>
       <r>   -0.0084    1.0000 </r>
       <r>    0.0292    1.0000 </r>
       <r>    0.3391    1.0000 </r>
       <r>    0.3997    1.0000 </r>
       <r>    0.6849    1.0000 </r>
       <r>    0.7487    1.0000 </r>
       <r>    0.9419    1.0000 </r>
       <r>    0.9959    1.0000 </r>
       <r>    1.0267    1.0000 </r>
       <r>    1.0722    1.0000 </r>
       <r>    1.0893    1.0000 </r>
       <r>    1.1224    1.0000 </r>
       <r>    1.1383    1.0000 </r>
       <r>    1.1798    1.0000 </r>
       <r>    1.2536    1.0000 </r>
       <r>    1.3342    1.0000 </r>
       <r>    1.4021    1.0000 </r>
       <r>    1.4336    1.0000 </r>
       <r>    1.4933    1.0000 </r>
       <r>    2.6387    1.0000 </r>
       <r>    2.6841    1.0000 </r>
       <r>    2.7025    1.0000 </r>
       <r>    2.7604    1.0000 </r>
       <r>    2.8415    1.0000 </r>
       <r>    2.9193    1.0000 </r>
       <r>    2.9259    1.0000 </r>
       <r>    2.9715    1.0000 </r>
       <r>    2.9958    1.0000 </r>
       <r>    3.0191    1.0000 </r>
       <r>    3.0362    1.0000 </r>
       <r>    3.0680    1.0000 </r>
       <r>    3.1103    1.0000 </r>
       <r>    3.5132    1.0000 </r>
       <r>    3.5260    1.0000 </r>
       <r>    3.6397    1.0000 </r>
       <r>    3.6576    1.0000 </r>
       <r>    3.9549    1.0000 </r>
       <r>    4.0032    1.0000 </r>
       <r>    4.0355    1.0000 </r>
       <r>    4.0927    1.0000 </r>
       <r>    4.2955    1.0000 </r>
       <r>    4.3378    1.0000 </r>
       <r>    4.3596    1.0000 </r>
       <r>    4.3871    1.0000 </r>
       <r>    4.4021    1.0000 </r>
       <r>    4.4281    1.0000 </r>
       <r>    4.4685    1.0000 </r>
       <r>    4.5231    1.0000 </r>
       <r>    4.6094    1.0000 </r>
       <r>    4.6321    1.0000 </r>
       <r>    4.6664    1.0000 </r>
       <r>    4.7057    1.0000 </r>
       <r>    4.7762    1.0000 </r>
       <r>    4.8079    1.0000 </r>
       <r>    4.8503    1.0000 </r>
       <r>    4.8896    1.0000 </r>
       <r>    4.9857    1.0000 </r>
       <r>    4.9936    1.0000 </r>
       <r>    5.3824    1.0000 </r>
       <r>    5.3979    1.0000 </r>
       <r>    5.5743    1.0000 </r>
       <r>    5.6026    1.0000 </r>
       <r>    5.6316    1.0000 </r>
       <r>    5.6618    1.0000 </r>
       <r>    5.8092    1.0000 </r>
       <r>    5.8770    1.0000 </r>
       <r>    5.9071    1.0000 </r>
       <r>    5.9698    1.0000 </r>
       <r>    6.1351    1.0000 </r>
       <r>    6.2351    1.0000 </r>
       <r>    6.2653    1.0000 </r>
       <r>    6.3130    1.0000 </r>
       <r>    6.3267    1.0000 </r>
       <r>    6.4184    1.0000 </r>
       <r>    6.4728    1.0000 </r>
       <r>    6.5123    1.0000 </r>
       <r>    6.5773    1.0000 </r>
       <r>    6.6878    1.0000 </r>
       <r>    6.7390    1.0000 </r>
       <r>    6.7945    1.0000 </r>
       <r>    6.8252    1.0000 </r>
       <r>    6.8593    1.0000 </r>
       <r>    6.8883    1.0000 </r>
       <r>    6.9031    1.0000 </r>
       <r>    6.9319    1.0000 </r>
       <r>    6.9506    1.0000 </r>
       <r>    6.9973    1.0000 </r>
       <r>    7.0091    1.0000 </r>
       <r>    7.0398    1.0000 </r>
       <r>    7.0534    1.0000 </r>
       <r>    7.0862    1.0000 </r>
       <r>    7.4863    1.0000 </r>
       <r>    7.6876    1.0018 </r>
       <r>    7.7250    1.0038 </r>
       <r>    9.6779   -0.0000 </r>
       <r>   10.1486   -0.0000 </r>
       <r>   10.2480   -0.0000 </r>
       <r>   10.6159   -0.0000 </r>
       <r>   11.9172   -0.0000 </r>
       <r>   11.9975   -0.0000 </r>
       <r>   12.4589   -0.0000 </r>
       <r>   12.5597   -0.0000 </r>
       <r>   12.5870   -0.0000 </r>
       <r>   12.6587   -0.0000 </r>
       <r>   12.6924   -0.0000 </r>
       <r>   12.8728   -0.0000 </r>
       <r>   12.9085   -0.0000 </r>
       <r>   12.9531   -0.0000 </r>
       <r>   12.9585   -0.0000 </r>
       <r>   13.0014   -0.0000 </r>
       <r>   13.0426   -0.0000 </r>
       <r>   13.0670   -0.0000 </r>
       <r>   13.0882   -0.0000 </r>
       <r>   13.1433   -0.0000 </r>
       <r>   13.1752   -0.0000 </r>
       <r>   13.2274   -0.0000 </r>
       <r>   13.4710   -0.0000 </r>
       <r>   13.5807   -0.0000 </r>
       <r>   13.5953   -0.0000 </r>
       <r>   13.6276    0.0000 </r>
       <r>   13.6481    0.0000 </r>
       <r>   13.6572    0.0000 </r>
       <r>   13.6900    0.0000 </r>
       <r>   13.7113    0.0000 </r>
       <r>   13.7330    0.0000 </r>
       <r>   13.9135    0.0000 </r>
       <r>   13.9390    0.0000 </r>
       <r>   14.0261    0.0000 </r>
       <r>   14.0615    0.0000 </r>
       <r>   14.4516    0.0000 </r>
       <r>   14.7334    0.0000 </r>
       <r>   14.7756    0.0000 </r>
       <r>   14.8250    0.0000 </r>
       <r>   14.8582    0.0000 </r>
      </set>
      <set comment="kpoint 4">
       <r>   -7.1714    1.0000 </r>
       <r>   -6.6349    1.0000 </r>
       <r>   -5.6827    1.0000 </r>
       <r>   -5.6241    1.0000 </r>
       <r>   -5.5975    1.0000 </r>
       <r>   -5.5139    1.0000 </r>
       <r>   -5.1918    1.0000 </r>
       <r>   -5.1282    1.0000 </r>
       <r>   -5.0954    1.0000 </r>
       <r>   -5.0226    1.0000 </r>
       <r>   -4.5993    1.0000 </r>
       <r>   -4.3312    1.0000 </r>
       <r>   -4.3003    1.0000 </r>
       <r>   -4.1907    1.0000 </r>
       <r>   -4.1696    1.0000 </r>
       <r>   -4.0202    1.0000 </r>
       <r>   -3.9975    1.0000 </r>
       <r>   -3.9207    1.0000 </r>
       <r>   -3.9054    1.0000 </r>
       <r>   -3.4696    1.0000 </r>
       <r>   -3.4288    1.0000 </r>
       <r>   -3.3940    1.0000 </r>
       <r>   -3.3147    1.0000 </r>
       <r>   -3.2045    1.0000 </r>
       <r>   -2.5900    1.0000 </r>
       <r>   -2.5573    1.0000 </r>
       <r>   -2.5198    1.0000 </r>
       <r>   -2.4298    1.0000 </r>
       <r>   -2.3383    1.0000 </r>
       <r>   -2.2848    1.0000 </r>
       <r>   -2.1640    1.0000 </r>
       <r>   -2.1485    1.0000 </r>
       <r>   -0.0872    1.0000 </r>
       <r>   -0.0682    1.0000 </r>
       <r>   -0.0046    1.0000 </r>
       <r>    0.0391    1.0000 </r>
       <r>    0.3470    1.0000 </r>
       <r>    0.3737    1.0000 </r>
       <r>    0.7020    1.0000 </r>
       <r>    0.7379    1.0000 </r>
       <r>    0.9621    1.0000 </r>
       <r>    0.9904    1.0000 </r>
       <r>    1.0254    1.0000 </r>
       <r>    1.0621    1.0000 </r>
       <r>    1.0762    1.0000 </r>
       <r>    1.1020    1.0000 </r>
       <r>    1.1400    1.0000 </r>
       <r>    1.1851    1.0000 </r>
       <r>    1.2566    1.0000 </r>
       <r>    1.3680    1.0000 </r>
       <r>    1.4039    1.0000 </r>
       <r>    1.4277    1.0000 </r>
       <r>    1.4882    1.0000 </r>
       <r>    2.6590    1.0000 </r>
       <r>    2.6838    1.0000 </r>
       <r>    2.6978    1.0000 </r>
       <r>    2.7343    1.0000 </r>
       <r>    2.8889    1.0000 </r>
       <r>    2.9197    1.0000 </r>
       <r>    2.9476    1.0000 </r>
       <r>    2.9651    1.0000 </r>
       <r>    2.9862    1.0000 </r>
       <r>    3.0150    1.0000 </r>
       <r>    3.0218    1.0000 </r>
       <r>    3.0598    1.0000 </r>
       <r>    3.0979    1.0000 </r>
       <r>    3.5128    1.0000 </r>
       <r>    3.5219    1.0000 </r>
       <r>    3.6252    1.0000 </r>
       <r>    3.6530    1.0000 </r>
       <r>    3.9805    1.0000 </r>
       <r>    3.9974    1.0000 </r>
       <r>    4.0435    1.0000 </r>
       <r>    4.0898    1.0000 </r>
       <r>    4.3272    1.0000 </r>
       <r>    4.3410    1.0000 </r>
       <r>    4.3707    1.0000 </r>
       <r>    4.3888    1.0000 </r>
       <r>    4.4039    1.0000 </r>
       <r>    4.4325    1.0000 </r>
       <r>    4.4485    1.0000 </r>
       <r>    4.4874    1.0000 </r>
       <r>    4.5848    1.0000 </r>
       <r>    4.6424    1.0000 </r>
       <r>    4.6640    1.0000 </r>
       <r>    4.6981    1.0000 </r>
       <r>    4.7720    1.0000 </r>
       <r>    4.8008    1.0000 </r>
       <r>    4.8567    1.0000 </r>
       <r>    4.9012    1.0000 </r>
       <r>    4.9954    1.0000 </r>
       <r>    5.0002    1.0000 </r>
       <r>    5.3814    1.0000 </r>
       <r>    5.4090    1.0000 </r>
       <r>    5.5580    1.0000 </r>
       <r>    5.6057    1.0000 </r>
       <r>    5.6229    1.0000 </r>
       <r>    5.6628    1.0000 </r>
       <r>    5.8424    1.0000 </r>
       <r>    5.8742    1.0000 </r>
       <r>    5.8921    1.0000 </r>
       <r>    5.9546    1.0000 </r>
       <r>    6.1528    1.0000 </r>
       <r>    6.2149    1.0000 </r>
       <r>    6.2456    1.0000 </r>
       <r>    6.2877    1.0000 </r>
       <r>    6.3524    1.0000 </r>
       <r>    6.4387    1.0000 </r>
       <r>    6.4604    1.0000 </r>
       <r>    6.4974    1.0000 </r>
       <r>    6.5703    1.0000 </r>
       <r>    6.7325    1.0000 </r>
       <r>    6.7684    1.0000 </r>
       <r>    6.8027    1.0000 </r>
       <r>    6.8274    1.0000 </r>
       <r>    6.8525    1.0000 </r>
       <r>    6.8799    1.0000 </r>
       <r>    6.9132    1.0000 </r>
       <r>    6.9442    1.0000 </r>
       <r>    6.9539    1.0000 </r>
       <r>    6.9695    1.0000 </r>
       <r>    6.9906    1.0000 </r>
       <r>    7.0319    1.0000 </r>
       <r>    7.0567    1.0000 </r>
       <r>    7.0925    1.0000 </r>
       <r>    7.4960    1.0000 </r>
       <r>    7.6746    1.0014 </r>
       <r>    7.7246    1.0038 </r>
       <r>    9.6696   -0.0000 </r>
       <r>   10.1859   -0.0000 </r>
       <r>   10.2186   -0.0000 </r>
       <r>   10.6156   -0.0000 </r>
       <r>   11.9364   -0.0000 </r>
       <r>   11.9623   -0.0000 </r>
       <r>   12.4590   -0.0000 </r>
       <r>   12.5834   -0.0000 </r>
       <r>   12.6238   -0.0000 </r>
       <r>   12.6340   -0.0000 </r>
       <r>   12.6651   -0.0000 </r>
       <r>   12.8872   -0.0000 </r>
       <r>   12.9074   -0.0000 </r>
       <r>   12.9418   -0.0000 </r>
       <r>   12.9689   -0.0000 </r>
       <r>   13.0037   -0.0000 </r>
       <r>   13.0452   -0.0000 </r>
       <r>   13.0720   -0.0000 </r>
       <r>   13.0843   -0.0000 </r>
       <r>   13.1557   -0.0000 </r>
       <r>   13.1929   -0.0000 </r>
       <r>   13.2387   -0.0000 </r>
       <r>   13.4740   -0.0000 </r>
       <r>   13.5461   -0.0000 </r>
       <r>   13.5835   -0.0000 </r>
       <r>   13.6070   -0.0000 </r>
       <r>   13.6406    0.0000 </r>
       <r>   13.6573    0.0000 </r>
       <r>   13.6865    0.0000 </r>
       <r>   13.7096    0.0000 </r>
       <r>   13.7599    0.0000 </r>
       <r>   13.9133    0.0000 </r>
       <r>   13.9682    0.0000 </r>
       <r>   13.9880    0.0000 </r>
       <r>   14.0491    0.0000 </r>
       <r>   14.4621    0.0000 </r>
       <r>   14.7336    0.0000 </r>
       <r>   14.7740    0.0000 </r>
       <r>   14.8106    0.0000 </r>
       <r>   14.8622    0.0000 </r>
      </set>
      <set comment="kpoint 5">
       <r>   -6.9941    1.0000 </r>
       <r>   -6.4694    1.0000 </r>
       <r>   -6.4592    1.0000 </r>
       <r>   -5.9487    1.0000 </r>
       <r>   -5.4578    1.0000 </r>
       <r>   -5.4190    1.0000 </r>
       <r>   -4.9967    1.0000 </r>
       <r>   -4.9909    1.0000 </r>
       <r>   -4.9510    1.0000 </r>
       <r>   -4.9389    1.0000 </r>
       <r>   -4.5829    1.0000 </r>
       <r>   -4.5436    1.0000 </r>
       <r>   -4.4423    1.0000 </r>
       <r>   -4.4038    1.0000 </r>
       <r>   -4.0684    1.0000 </r>
       <r>   -3.9996    1.0000 </r>
       <r>   -3.5478    1.0000 </r>
       <r>   -3.5195    1.0000 </r>
       <r>   -3.4323    1.0000 </r>
       <r>   -3.3935    1.0000 </r>
       <r>   -3.3779    1.0000 </r>
       <r>   -3.3576    1.0000 </r>
       <r>   -3.1531    1.0000 </r>
       <r>   -3.0878    1.0000 </r>
       <r>   -2.8608    1.0000 </r>
       <r>   -2.8440    1.0000 </r>
       <r>   -2.7598    1.0000 </r>
       <r>   -2.7172    1.0000 </r>
       <r>   -2.6669    1.0000 </r>
       <r>   -2.3477    1.0000 </r>
       <r>   -2.3027    1.0000 </r>
       <r>   -2.2361    1.0000 </r>
       <r>   -0.1980    1.0000 </r>
       <r>   -0.1496    1.0000 </r>
       <r>    0.4502    1.0000 </r>
       <r>    0.4999    1.0000 </r>
       <r>    0.5271    1.0000 </r>
       <r>    0.5535    1.0000 </r>
       <r>    0.5811    1.0000 </r>
       <r>    0.6236    1.0000 </r>
       <r>    0.6709    1.0000 </r>
       <r>    0.7856    1.0000 </r>
       <r>    0.8204    1.0000 </r>
       <r>    0.8360    1.0000 </r>
       <r>    0.8502    1.0000 </r>
       <r>    0.9918    1.0000 </r>
       <r>    1.1892    1.0000 </r>
       <r>    1.2189    1.0000 </r>
       <r>    1.2523    1.0000 </r>
       <r>    1.2936    1.0000 </r>
       <r>    1.9727    1.0000 </r>
       <r>    2.0069    1.0000 </r>
       <r>    2.0548    1.0000 </r>
       <r>    2.0808    1.0000 </r>
       <r>    2.1064    1.0000 </r>
       <r>    2.1592    1.0000 </r>
       <r>    2.4047    1.0000 </r>
       <r>    2.5668    1.0000 </r>
       <r>    2.5929    1.0000 </r>
       <r>    2.6881    1.0000 </r>
       <r>    2.7099    1.0000 </r>
       <r>    3.1915    1.0000 </r>
       <r>    3.2345    1.0000 </r>
       <r>    3.2753    1.0000 </r>
       <r>    3.2983    1.0000 </r>
       <r>    3.3400    1.0000 </r>
       <r>    3.5024    1.0000 </r>
       <r>    3.5250    1.0000 </r>
       <r>    3.8762    1.0000 </r>
       <r>    3.9135    1.0000 </r>
       <r>    4.0188    1.0000 </r>
       <r>    4.0412    1.0000 </r>
       <r>    4.0612    1.0000 </r>
       <r>    4.0817    1.0000 </r>
       <r>    4.1121    1.0000 </r>
       <r>    4.3036    1.0000 </r>
       <r>    4.3239    1.0000 </r>
       <r>    4.4704    1.0000 </r>
       <r>    4.4992    1.0000 </r>
       <r>    4.6345    1.0000 </r>
       <r>    4.6915    1.0000 </r>
       <r>    4.8674    1.0000 </r>
       <r>    4.8759    1.0000 </r>
       <r>    4.9035    1.0000 </r>
       <r>    4.9129    1.0000 </r>
       <r>    4.9279    1.0000 </r>
       <r>    4.9644    1.0000 </r>
       <r>    5.1065    1.0000 </r>
       <r>    5.2638    1.0000 </r>
       <r>    5.2888    1.0000 </r>
       <r>    5.3831    1.0000 </r>
       <r>    5.4113    1.0000 </r>
       <r>    5.4428    1.0000 </r>
       <r>    5.4798    1.0000 </r>
       <r>    5.5213    1.0000 </r>
       <r>    5.5501    1.0000 </r>
       <r>    5.5738    1.0000 </r>
       <r>    5.5982    1.0000 </r>
       <r>    5.6239    1.0000 </r>
       <r>    5.6419    1.0000 </r>
       <r>    5.7047    1.0000 </r>
       <r>    5.8426    1.0000 </r>
       <r>    5.9911    1.0000 </r>
       <r>    6.0017    1.0000 </r>
       <r>    6.0281    1.0000 </r>
       <r>    6.0595    1.0000 </r>
       <r>    6.1884    1.0000 </r>
       <r>    6.2049    1.0000 </r>
       <r>    6.2666    1.0000 </r>
       <r>    6.2993    1.0000 </r>
       <r>    6.3736    1.0000 </r>
       <r>    6.4189    1.0000 </r>
       <r>    6.4944    1.0000 </r>
       <r>    6.5247    1.0000 </r>
       <r>    6.5724    1.0000 </r>
       <r>    6.6596    1.0000 </r>
       <r>    6.6827    1.0000 </r>
       <r>    6.7471    1.0000 </r>
       <r>    6.7724    1.0000 </r>
       <r>    6.8596    1.0000 </r>
       <r>    6.8671    1.0000 </r>
       <r>    6.9106    1.0000 </r>
       <r>    6.9521    1.0000 </r>
       <r>    7.3276    1.0000 </r>
       <r>    7.4859    1.0000 </r>
       <r>    7.5005    1.0000 </r>
       <r>    7.6568    1.0009 </r>
       <r>    8.0123    0.9837 </r>
       <r>   10.3949   -0.0000 </r>
       <r>   10.4668   -0.0000 </r>
       <r>   10.5237   -0.0000 </r>
       <r>   11.2947   -0.0000 </r>
       <r>   11.3415   -0.0000 </r>
       <r>   11.6271   -0.0000 </r>
       <r>   11.6490   -0.0000 </r>
       <r>   11.8160   -0.0000 </r>
       <r>   12.1525   -0.0000 </r>
       <r>   12.1988   -0.0000 </r>
       <r>   12.8002   -0.0000 </r>
       <r>   12.8205   -0.0000 </r>
       <r>   12.8435   -0.0000 </r>
       <r>   12.8606   -0.0000 </r>
       <r>   13.0337   -0.0000 </r>
       <r>   13.0546   -0.0000 </r>
       <r>   13.1069   -0.0000 </r>
       <r>   13.1466   -0.0000 </r>
       <r>   13.1750   -0.0000 </r>
       <r>   13.2126   -0.0000 </r>
       <r>   13.2662   -0.0000 </r>
       <r>   13.3170   -0.0000 </r>
       <r>   13.4974   -0.0000 </r>
       <r>   13.5459   -0.0000 </r>
       <r>   13.5736   -0.0000 </r>
       <r>   13.5968   -0.0000 </r>
       <r>   13.7017    0.0000 </r>
       <r>   13.7375    0.0000 </r>
       <r>   13.7636    0.0000 </r>
       <r>   13.7892    0.0000 </r>
       <r>   13.8644    0.0000 </r>
       <r>   13.9203    0.0000 </r>
       <r>   13.9946    0.0000 </r>
       <r>   14.0882    0.0000 </r>
       <r>   14.1099    0.0000 </r>
       <r>   14.6243    0.0000 </r>
       <r>   14.7027    0.0000 </r>
       <r>   14.7519    0.0000 </r>
       <r>   14.8747    0.0000 </r>
       <r>   14.9839    0.0000 </r>
      </set>
      <set comment="kpoint 6">
       <r>   -6.9937    1.0000 </r>
       <r>   -6.4938    1.0000 </r>
       <r>   -6.4346    1.0000 </r>
       <r>   -5.9469    1.0000 </r>
       <r>   -5.4542    1.0000 </r>
       <r>   -5.4270    1.0000 </r>
       <r>   -5.0271    1.0000 </r>
       <r>   -4.9746    1.0000 </r>
       <r>   -4.9500    1.0000 </r>
       <r>   -4.9181    1.0000 </r>
       <r>   -4.5791    1.0000 </r>
       <r>   -4.5462    1.0000 </r>
       <r>   -4.4746    1.0000 </r>
       <r>   -4.3820    1.0000 </r>
       <r>   -4.0637    1.0000 </r>
       <r>   -3.9914    1.0000 </r>
       <r>   -3.5479    1.0000 </r>
       <r>   -3.5358    1.0000 </r>
       <r>   -3.4550    1.0000 </r>
       <r>   -3.3934    1.0000 </r>
       <r>   -3.3621    1.0000 </r>
       <r>   -3.3359    1.0000 </r>
       <r>   -3.1640    1.0000 </r>
       <r>   -3.0840    1.0000 </r>
       <r>   -2.8798    1.0000 </r>
       <r>   -2.8208    1.0000 </r>
       <r>   -2.7739    1.0000 </r>
       <r>   -2.7173    1.0000 </r>
       <r>   -2.6581    1.0000 </r>
       <r>   -2.3445    1.0000 </r>
       <r>   -2.3153    1.0000 </r>
       <r>   -2.2279    1.0000 </r>
       <r>   -0.1696    1.0000 </r>
       <r>   -0.1487    1.0000 </r>
       <r>    0.4372    1.0000 </r>
       <r>    0.4769    1.0000 </r>
       <r>    0.5331    1.0000 </r>
       <r>    0.5516    1.0000 </r>
       <r>    0.5654    1.0000 </r>
       <r>    0.6441    1.0000 </r>
       <r>    0.6747    1.0000 </r>
       <r>    0.7812    1.0000 </r>
       <r>    0.8015    1.0000 </r>
       <r>    0.8300    1.0000 </r>
       <r>    0.8768    1.0000 </r>
       <r>    0.9749    1.0000 </r>
       <r>    1.1606    1.0000 </r>
       <r>    1.2004    1.0000 </r>
       <r>    1.2711    1.0000 </r>
       <r>    1.3162    1.0000 </r>
       <r>    1.9857    1.0000 </r>
       <r>    2.0067    1.0000 </r>
       <r>    2.0516    1.0000 </r>
       <r>    2.0809    1.0000 </r>
       <r>    2.1065    1.0000 </r>
       <r>    2.2056    1.0000 </r>
       <r>    2.4032    1.0000 </r>
       <r>    2.5532    1.0000 </r>
       <r>    2.6186    1.0000 </r>
       <r>    2.6536    1.0000 </r>
       <r>    2.7127    1.0000 </r>
       <r>    3.1878    1.0000 </r>
[...]
      </set>
     </set>
    </set>
   </array>
  </eigenvalues>
  <separator name="orbital magnetization" >
   <v name="MAGDIPOLOUT">      0.00000000      0.00000000      0.00000000</v>
  </separator>
  <dos>
   <i name="efermi">      8.16747660 </i>
   <total>
    <array>
     <dimension dim="1">gridpoints</dimension>
     <dimension dim="2">spin</dimension>
     <field>energy</field>
     <field>total</field>
     <field>integrated</field>
     <set>
      <set comment="spin 1">
       <r>    -9.3485     0.0000     0.0000 </r>
       <r>    -9.2593     0.0000     0.0000 </r>
       <r>    -9.1700     0.0000     0.0000 </r>
       <r>    -9.0808     0.0000     0.0000 </r>
       <r>    -8.9916    -0.0000    -0.0000 </r>
       <r>    -8.9023    -0.0000    -0.0000 </r>
       <r>    -8.8131    -0.0000    -0.0000 </r>
       <r>    -8.7239    -0.0000    -0.0000 </r>
       <r>    -8.6347    -0.0000    -0.0000 </r>
       <r>    -8.5454    -0.0000    -0.0000 </r>
       <r>    -8.4562    -0.0000    -0.0000 </r>
       <r>    -8.3670    -0.0000    -0.0000 </r>
       <r>    -8.2778    -0.0000    -0.0000 </r>
       <r>    -8.1885    -0.0000    -0.0000 </r>
       <r>    -8.0993    -0.0000    -0.0000 </r>
       <r>    -8.0101    -0.0000    -0.0000 </r>
       <r>    -7.9208    -0.0002    -0.0000 </r>
       <r>    -7.8316    -0.0013    -0.0001 </r>
       <r>    -7.7424    -0.0069    -0.0007 </r>
       <r>    -7.6532    -0.0224    -0.0027 </r>
       <r>    -7.5639    -0.0418    -0.0065 </r>
       <r>    -7.4747    -0.0233    -0.0086 </r>
       <r>    -7.3855     0.1345     0.0035 </r>
       <r>    -7.2963     0.6065     0.0576 </r>
       <r>    -7.2070     1.5218     0.1934 </r>
       <r>    -7.1178     2.7823     0.4416 </r>
       <r>    -7.0286     4.0218     0.8005 </r>
       <r>    -6.9393     4.5885     1.2099 </r>
       <r>    -6.8501     4.1138     1.5770 </r>
       <r>    -6.7609     3.1377     1.8569 </r>
       <r>    -6.6717     2.7771     2.1047 </r>
       <r>    -6.5824     4.1251     2.4728 </r>
       <r>    -6.4932     7.1070     3.1069 </r>
       <r>    -6.4040     9.7928     3.9807 </r>
       <r>    -6.3147    10.0329     4.8759 </r>
       <r>    -6.2255     7.4912     5.5443 </r>
       <r>    -6.1363     3.9520     5.8970 </r>
       <r>    -6.0471     2.2816     6.1006 </r>
       <r>    -5.9578     3.8743     6.4462 </r>
       <r>    -5.8686     7.2028     7.0889 </r>
       <r>    -5.7794     9.9795     7.9794 </r>
       <r>    -5.6902    11.2098     8.9796 </r>
       <r>    -5.6009    11.2444     9.9829 </r>
       <r>    -5.5117    10.9789    10.9625 </r>
       <r>    -5.4225    10.2387    11.8761 </r>
       <r>    -5.3332     8.3533    12.6214 </r>
       <r>    -5.2440     6.7640    13.2250 </r>
       <r>    -5.1548     8.1766    13.9546 </r>
       <r>    -5.0656    12.7033    15.0880 </r>
       <r>    -4.9763    16.1611    16.5301 </r>
       <r>    -4.8871    13.8888    17.7693 </r>
       <r>    -4.7979     7.2816    18.4190 </r>
       <r>    -4.7087     3.2900    18.7126 </r>
       <r>    -4.6194     5.9715    19.2454 </r>
       <r>    -4.5302    12.3346    20.3460 </r>
       <r>    -4.4410    17.4540    21.9034 </r>
       <r>    -4.3517    19.1384    23.6111 </r>
       <r>    -4.2625    17.3150    25.1560 </r>
       <r>    -4.1733    14.8295    26.4792 </r>
       <r>    -4.0841    16.6257    27.9627 </r>
       <r>    -3.9948    21.9921    29.9250 </r>
       <r>    -3.9056    23.3682    32.0101 </r>
       <r>    -3.8164    17.8862    33.6060 </r>
       <r>    -3.7272    11.8433    34.6628 </r>
       <r>    -3.6379    11.2173    35.6637 </r>
       <r>    -3.5487    15.6661    37.0615 </r>
       <r>    -3.4595    21.1725    38.9507 </r>
       <r>    -3.3702    23.0498    41.0074 </r>
       <r>    -3.2810    19.9474    42.7873 </r>
       <r>    -3.1918    16.4252    44.2528 </r>
       <r>    -3.1026    16.3972    45.7159 </r>
       <r>    -3.0133    18.7524    47.3891 </r>
       <r>    -2.9241    22.3664    49.3848 </r>
       <r>    -2.8349    26.5498    51.7538 </r>
       <r>    -2.7456    27.6597    54.2218 </r>
       <r>    -2.6564    22.8372    56.2595 </r>
       <r>    -2.5672    14.9763    57.5958 </r>
       <r>    -2.4780    10.2565    58.5110 </r>
       <r>    -2.3887    11.6260    59.5484 </r>
       <r>    -2.2995    15.6971    60.9490 </r>
       <r>    -2.2103    16.3717    62.4098 </r>
       <r>    -2.1211    11.7681    63.4598 </r>
       <r>    -2.0318     5.4846    63.9492 </r>
       <r>    -1.9426     1.3044    64.0656 </r>
       <r>    -1.8534    -0.1993    64.0478 </r>
       <r>    -1.7641    -0.3264    64.0187 </r>
       <r>    -1.6749    -0.1544    64.0049 </r>
       <r>    -1.5857    -0.0449    64.0009 </r>
       <r>    -1.4965    -0.0088    64.0001 </r>
       <r>    -1.4072    -0.0012    64.0000 </r>
       <r>    -1.3180    -0.0001    64.0000 </r>
       <r>    -1.2288    -0.0000    64.0000 </r>
       <r>    -1.1396    -0.0001    64.0000 </r>
       <r>    -1.0503    -0.0013    63.9999 </r>
       <r>    -0.9611    -0.0083    63.9991 </r>
       <r>    -0.8719    -0.0307    63.9964 </r>
       <r>    -0.7826    -0.0530    63.9917 </r>
       <r>    -0.6934     0.0331    63.9946 </r>
       <r>    -0.6042     0.3378    64.0248 </r>
       <r>    -0.5150     0.6395    64.0818 </r>
       <r>    -0.4257     0.6794    64.1424 </r>
       <r>    -0.3365     1.4230    64.2694 </r>
       <r>    -0.2473     4.5128    64.6721 </r>
       <r>    -0.1580     8.9292    65.4688 </r>
       <r>    -0.0688    10.8732    66.4390 </r>
       <r>     0.0204     8.9155    67.2345 </r>
       <r>     0.1096     6.3813    67.8039 </r>
       <r>     0.1989     7.3315    68.4581 </r>
       <r>     0.2881    12.1099    69.5386 </r>
       <r>     0.3773    18.0133    71.1459 </r>
       <r>     0.4665    22.3929    73.1440 </r>
       <r>     0.5558    24.0955    75.2939 </r>
       <r>     0.6450    24.7054    77.4983 </r>
       <r>     0.7342    27.4388    79.9466 </r>
       <r>     0.8235    31.5144    82.7586 </r>
       <r>     0.9127    32.1130    85.6239 </r>
       <r>     1.0019    29.1591    88.2257 </r>
       <r>     1.0911    28.6568    90.7827 </r>
       <r>     1.1804    33.1575    93.7413 </r>
       <r>     1.2696    36.9040    97.0341 </r>
       <r>     1.3588    32.7836    99.9593 </r>
       <r>     1.4480    21.3471   101.8641 </r>
       <r>     1.5373     9.2395   102.6885 </r>
       <r>     1.6265     1.5490   102.8267 </r>
       <r>     1.7157    -0.8965   102.7467 </r>
       <r>     1.8050     0.9015   102.8272 </r>
       <r>     1.8942     6.6736   103.4226 </r>
       <r>     1.9834    15.5938   104.8140 </r>
       <r>     2.0726    23.1323   106.8781 </r>
       <r>     2.1619    23.6657   108.9897 </r>
       <r>     2.2511    17.2041   110.5248 </r>
       <r>     2.3403     9.5772   111.3793 </r>
       <r>     2.4296     6.1828   111.9310 </r>
       <r>     2.5188     8.4928   112.6888 </r>
       <r>     2.6080    14.2214   113.9577 </r>
       <r>     2.6972    17.8590   115.5513 </r>
       <r>     2.7865    15.8964   116.9697 </r>
       <r>     2.8757    12.6230   118.0960 </r>
       <r>     2.9649    14.0584   119.3504 </r>
       <r>     3.0541    19.4582   121.0866 </r>
       <r>     3.1434    25.4051   123.3534 </r>
       <r>     3.2326    30.7836   126.1002 </r>
       <r>     3.3218    33.1362   129.0568 </r>
       <r>     3.4111    30.5536   131.7830 </r>
       <r>     3.5003    26.9549   134.1881 </r>
       <r>     3.5895    24.8412   136.4047 </r>
       <r>     3.6787    21.0159   138.2799 </r>
       <r>     3.7680    15.2492   139.6405 </r>
       <r>     3.8572    13.1212   140.8113 </r>
       <r>     3.9464    17.8491   142.4039 </r>
       <r>     4.0356    23.8303   144.5302 </r>
       <r>     4.1249    23.3194   146.6110 </r>
       <r>     4.2141    19.2434   148.3280 </r>
       <r>     4.3033    21.2123   150.2207 </r>
       <r>     4.3926    29.1085   152.8180 </r>
       <r>     4.4818    34.8171   155.9246 </r>
       <r>     4.5710    35.4915   159.0914 </r>
       <r>     4.6602    33.8280   162.1098 </r>
       <r>     4.7495    33.1338   165.0663 </r>
       <r>     4.8387    35.0174   168.1908 </r>
       <r>     4.9279    36.4942   171.4471 </r>
       <r>     5.0171    34.1805   174.4969 </r>
       <r>     5.1064    30.5604   177.2238 </r>
       <r>     5.1956    29.6364   179.8681 </r>
       <r>     5.2848    30.8944   182.6248 </r>
       <r>     5.3741    31.6484   185.4487 </r>
       <r>     5.4633    32.9078   188.3850 </r>
       <r>     5.5525    37.4926   191.7303 </r>
       <r>     5.6417    41.8675   195.4661 </r>
       <r>     5.7310    39.9861   199.0339 </r>
       <r>     5.8202    34.9520   202.1526 </r>
       <r>     5.9094    33.3175   205.1255 </r>
       <r>     5.9987    33.1094   208.0797 </r>
       <r>     6.0879    30.3967   210.7919 </r>
       <r>     6.1771    28.7486   213.3571 </r>
       <r>     6.2663    31.3258   216.1522 </r>
       <r>     6.3556    34.4298   219.2243 </r>
       <r>     6.4448    34.6624   222.3172 </r>
       <r>     6.5340    31.8052   225.1551 </r>
       <r>     6.6232    27.7798   227.6338 </r>
       <r>     6.7125    26.9835   230.0414 </r>
       <r>     6.8017    31.6258   232.8633 </r>
       <r>     6.8909    38.1341   236.2659 </r>
       <r>     6.9802    39.5391   239.7939 </r>
       <r>     7.0694    31.9793   242.6474 </r>
       <r>     7.1586    20.1891   244.4488 </r>
       <r>     7.2478    12.7620   245.5875 </r>
       <r>     7.3371    12.6279   246.7143 </r>
       <r>     7.4263    16.3835   248.1761 </r>
       <r>     7.5155    19.8064   249.9434 </r>
       <r>     7.6047    20.4629   251.7693 </r>
       <r>     7.6940    17.5973   253.3394 </r>
       <r>     7.7832    12.0391   254.4136 </r>
       <r>     7.8724     6.7089   255.0123 </r>
       <r>     7.9617     4.3458   255.4000 </r>
       <r>     8.0509     3.7955   255.7387 </r>
       <r>     8.1401     2.5258   255.9641 </r>
       <r>     8.2293     0.7864   256.0342 </r>
       <r>     8.3186    -0.1057   256.0248 </r>
       <r>     8.4078    -0.1860   256.0082 </r>
       <r>     8.4970    -0.0735   256.0016 </r>
       <r>     8.5863    -0.0159   256.0002 </r>
       <r>     8.6755    -0.0022   256.0000 </r>
       <r>     8.7647    -0.0007   256.0000 </r>
       <r>     8.8539    -0.0034   255.9996 </r>
       <r>     8.9432    -0.0150   255.9983 </r>
       <r>     9.0324    -0.0346   255.9952 </r>
       <r>     9.1216    -0.0085   255.9945 </r>
       <r>     9.2108     0.1784   256.0104 </r>
       <r>     9.3001     0.5137   256.0562 </r>
       <r>     9.3893     0.7251   256.1209 </r>
       <r>     9.4785     0.7333   256.1864 </r>
       <r>     9.5678     0.9989   256.2755 </r>
       <r>     9.6570     1.6107   256.4192 </r>
       <r>     9.7462     1.7065   256.5715 </r>
       <r>     9.8354     0.8935   256.6512 </r>
       <r>     9.9247     0.0165   256.6527 </r>
       <r>    10.0139     0.0118   256.6537 </r>
       <r>    10.1031     1.1313   256.7547 </r>
       <r>    10.1923     2.8173   257.0060 </r>
       <r>    10.2816     4.5432   257.4114 </r>
       <r>    10.3708     6.8488   258.0225 </r>
       <r>    10.4600     9.6128   258.8802 </r>
       <r>    10.5493    11.3122   259.8896 </r>
       <r>    10.6385    11.3076   260.8986 </r>
       <r>    10.7277     9.5752   261.7529 </r>
       <r>    10.8169     6.0373   262.2916 </r>
       <r>    10.9062     2.1211   262.4809 </r>
       <r>    10.9954    -0.2448   262.4590 </r>
       <r>    11.0846    -0.6098   262.4046 </r>
       <r>    11.1739     0.9813   262.4922 </r>
       <r>    11.2631     4.2458   262.8710 </r>
       <r>    11.3523     7.3222   263.5244 </r>
       <r>    11.4415     8.9284   264.3210 </r>
       <r>    11.5308    10.3106   265.2410 </r>
       <r>    11.6200    11.9412   266.3065 </r>
       <r>    11.7092    13.3355   267.4964 </r>
       <r>    11.7984    15.8075   268.9069 </r>
       <r>    11.8877    19.2342   270.6231 </r>
       <r>    11.9769    20.8188   272.4807 </r>
       <r>    12.0661    19.6612   274.2350 </r>
       <r>    12.1554    16.5235   275.7094 </r>
       <r>    12.2446    11.2824   276.7161 </r>
       <r>    12.3338     5.6219   277.2177 </r>
       <r>    12.4230     4.1112   277.5845 </r>
       <r>    12.5123     8.7354   278.3640 </r>
       <r>    12.6015    16.0123   279.7927 </r>
       <r>    12.6907    22.1202   281.7665 </r>
       <r>    12.7799    26.9622   284.1722 </r>
       <r>    12.8692    30.5117   286.8947 </r>
       <r>    12.9584    31.8118   289.7332 </r>
       <r>    13.0476    32.3931   292.6236 </r>
       <r>    13.1369    32.5576   295.5286 </r>
       <r>    13.2261    28.8759   298.1051 </r>
       <r>    13.3153    21.0206   299.9807 </r>
       <r>    13.4045    15.6196   301.3744 </r>
       <r>    13.4938    19.3993   303.1054 </r>
       <r>    13.5830    29.2247   305.7130 </r>
       <r>    13.6722    34.7397   308.8128 </r>
       <r>    13.7614    32.0576   311.6732 </r>
       <r>    13.8507    27.5309   314.1297 </r>
       <r>    13.9399    27.7925   316.6096 </r>
       <r>    14.0291    31.4033   319.4116 </r>
       <r>    14.1184    31.5677   322.2283 </r>
       <r>    14.2076    24.9247   324.4523 </r>
       <r>    14.2968    14.8144   325.7741 </r>
       <r>    14.3860     6.4700   326.3514 </r>
       <r>    14.4753     3.1789   326.6351 </r>
       <r>    14.5645     6.6438   327.2279 </r>
       <r>    14.6537    15.2050   328.5846 </r>
       <r>    14.7430    21.9277   330.5412 </r>
       <r>    14.8322    21.2079   332.4335 </r>
       <r>    14.9214    15.1302   333.7835 </r>
       <r>    15.0106     8.3875   334.5319 </r>
       <r>    15.0999     3.2241   334.8196 </r>
       <r>    15.1891     0.9473   334.9041 </r>
       <r>    15.2783     1.9113   335.0747 </r>
       <r>    15.3675     3.9311   335.4254 </r>
       <r>    15.4568     4.1114   335.7923 </r>
       <r>    15.5460     2.2626   335.9942 </r>
       <r>    15.6352     0.4598   336.0352 </r>
       <r>    15.7245    -0.1833   336.0188 </r>
       <r>    15.8137    -0.1533   336.0052 </r>
       <r>    15.9029    -0.0481   336.0009 </r>
       <r>    15.9921    -0.0086   336.0001 </r>
       <r>    16.0814    -0.0010   336.0000 </r>
       <r>    16.1706    -0.0001   336.0000 </r>
       <r>    16.2598    -0.0000   336.0000 </r>
       <r>    16.3490    -0.0000   336.0000 </r>
       <r>    16.4383    -0.0000   336.0000 </r>
       <r>    16.5275    -0.0000   336.0000 </r>
       <r>    16.6167    -0.0000   336.0000 </r>
       <r>    16.7060    -0.0000   336.0000 </r>
       <r>    16.7952     0.0000   336.0000 </r>
       <r>    16.8844     0.0000   336.0000 </r>
       <r>    16.9736     0.0000   336.0000 </r>
       <r>    17.0629     0.0000   336.0000 </r>
       <r>    17.1521     0.0000   336.0000 </r>
       <r>    17.2413     0.0000   336.0000 </r>
       <r>    17.3306     0.0000   336.0000 </r>
       <r>    17.4198     0.0000   336.0000 </r>
      </set>
     </set>
    </array>
   </total>
  </dos>
 </calculation>
 <structure name="finalpos" >
  <crystal>
   <varray name="basis" >
    <v>       8.74331558       0.00000000       0.00000000 </v>
    <v>       0.00000000       8.74331558       0.00000000 </v>
    <v>       0.00000000       0.00000000       8.74331558 </v>
   </varray>
   <i name="volume">    668.38771987 </i>
   <varray name="rec_basis" >
    <v>       0.11437309       0.00000000       0.00000000 </v>
    <v>       0.00000000       0.11437309       0.00000000 </v>
    <v>       0.00000000       0.00000000       0.11437309 </v>
   </varray>
  </crystal>
  <varray name="positions" >
   <v>       0.12499835       0.11893183       0.12717490 </v>
   <v>       0.11907999       0.37162801       0.37171087 </v>
   <v>       0.37555079       0.12494005       0.37640580 </v>
   <v>       0.37258207       0.38016385       0.12933047 </v>
   <v>       0.12945430       0.12282961       0.62129568 </v>
   <v>       0.12868049       0.37542314       0.87827426 </v>
   <v>       0.37356780       0.12194853       0.87283465 </v>
   <v>       0.37628966       0.37571965       0.62309169 </v>
   <v>       0.12098932       0.62292213       0.13271412 </v>
   <v>       0.12166312       0.87569011       0.37149304 </v>
   <v>       0.37319015       0.62093142       0.37456073 </v>
   <v>       0.37336530       0.87793938       0.12786504 </v>
   <v>       0.13022133       0.62054140       0.62389879 </v>
   <v>       0.12513728       0.87575768       0.87405894 </v>
   <v>       0.37486024       0.62140349       0.87906298 </v>
   <v>       0.37551688       0.87618039       0.62651593 </v>
   <v>       0.62449489       0.12499808       0.12447864 </v>
   <v>       0.62853404       0.36766493       0.37257886 </v>
   <v>       0.87935251       0.12603995       0.36920509 </v>
   <v>       0.87486170       0.37617489       0.12236663 </v>
   <v>       0.62655582       0.12475116       0.62391622 </v>
   <v>       0.61720256       0.37626922       0.87378169 </v>
   <v>       0.87670990       0.13545015       0.86971348 </v>
   <v>       0.87119309       0.37255518       0.61875109 </v>
   <v>       0.62746073       0.61737187       0.12485189 </v>
   <v>       0.62496094       0.87352036       0.37182933 </v>
   <v>       0.87556538       0.62014768       0.37385061 </v>
   <v>       0.87429804       0.87764347       0.12020915 </v>
   <v>       0.62577633       0.62059632       0.62624179 </v>
   <v>       0.62499209       0.88076686       0.87804618 </v>
   <v>       0.87254570       0.62636487       0.87415947 </v>
   <v>       0.87248214       0.87426282       0.62701587 </v>
   <v>       0.00925424       0.99976904       0.99893176 </v>
   <v>       0.99930703       0.24982450       0.24685816 </v>
   <v>       0.24799596       0.99756472       0.24780699 </v>
   <v>       0.25405037       0.24987016       0.99669953 </v>
   <v>       0.99702525       0.00271304       0.50173240 </v>
   <v>       0.99948789       0.24777298       0.75458030 </v>
   <v>       0.25293025       0.00363753       0.74845598 </v>
   <v>       0.24618201       0.24512356       0.50024885 </v>
   <v>       0.00017041       0.50288422       0.00345812 </v>
   <v>       0.00334315       0.75004655       0.25521160 </v>
   <v>       0.24548834       0.49852447       0.24645125 </v>
   <v>       0.25668679       0.74378520       0.99777984 </v>
   <v>       0.00166531       0.49721070       0.49849764 </v>
   <v>       0.00030375       0.74597331       0.74886366 </v>
   <v>       0.25093914       0.49768544       0.75274894 </v>
   <v>       0.25090646       0.74839818       0.50234317 </v>
   <v>       0.50140882       0.99773419       0.00067389 </v>
   <v>       0.50016382       0.24870177       0.24817973 </v>
   <v>       0.75351106       0.99858480       0.24827038 </v>
   <v>       0.74895334       0.25033975       0.99839375 </v>
   <v>       0.49921608       0.99966062       0.49717490 </v>
   <v>       0.49474875       0.24777531       0.75529674 </v>
   <v>       0.74869787       0.99675477       0.74864142 </v>
   <v>       0.75289974       0.24956728       0.50135864 </v>
   <v>       0.49922169       0.50058105       0.00257841 </v>
   <v>       0.49709672       0.74802880       0.25007855 </v>
   <v>       0.75001724       0.49962577       0.24878759 </v>
   <v>       0.74667972       0.74991702       0.99977266 </v>
   <v>       0.50372874       0.50118476       0.49962572 </v>
   <v>       0.50164048       0.75089279       0.75019511 </v>
   <v>       0.75208454       0.50040023       0.74903664 </v>
   <v>       0.75387288       0.74637170       0.49477067 </v>
  </varray>
 </structure>
</modeling>
