unknown system                          
           1
     8.743316    0.000000    0.000000
     0.000000    8.743316    0.000000
     0.000000    0.000000    8.743316
   C    Si
    32    32
Direct configuration=     1
   0.12499835  0.11893183  0.12717490
   0.11907999  0.37162801  0.37171087
   0.37555079  0.12494005  0.37640580
   0.37258207  0.38016385  0.12933047
   0.12945430  0.12282961  0.62129568
   0.12868049  0.37542314  0.87827426
   0.37356780  0.12194853  0.87283465
   0.37628966  0.37571965  0.62309169
   0.12098932  0.62292213  0.13271412
   0.12166312  0.87569011  0.37149304
   0.37319015  0.62093142  0.37456073
   0.37336530  0.87793938  0.12786504
   0.13022133  0.62054140  0.62389879
   0.12513728  0.87575768  0.87405894
   0.37486024  0.62140349  0.87906298
   0.37551688  0.87618039  0.62651593
   0.62449489  0.12499808  0.12447864
   0.62853404  0.36766493  0.37257886
   0.87935251  0.12603995  0.36920509
   0.87486170  0.37617489  0.12236663
   0.62655582  0.12475116  0.62391622
   0.61720256  0.37626922  0.87378169
   0.87670990  0.13545015  0.86971348
   0.87119309  0.37255518  0.61875109
   0.62746073  0.61737187  0.12485189
   0.62496094  0.87352036  0.37182933
   0.87556538  0.62014768  0.37385061
   0.87429804  0.87764347  0.12020915
   0.62577633  0.62059632  0.62624179
   0.62499209  0.88076686  0.87804618
   0.87254570  0.62636487  0.87415947
   0.87248214  0.87426282  0.62701587
   0.00925424  0.99976904  0.99893176
   0.99930703  0.24982450  0.24685816
   0.24799596  0.99756472  0.24780699
   0.25405037  0.24987016  0.99669953
   0.99702525  0.00271304  0.50173240
   0.99948789  0.24777298  0.75458030
   0.25293025  0.00363753  0.74845598
   0.24618201  0.24512356  0.50024885
   0.00017041  0.50288422  0.00345812
   0.00334315  0.75004655  0.25521160
   0.24548834  0.49852447  0.24645125
   0.25668679  0.74378520  0.99777984
   0.00166531  0.49721070  0.49849764
   0.00030375  0.74597331  0.74886366
   0.25093914  0.49768544  0.75274894
   0.25090646  0.74839818  0.50234317
   0.50140882  0.99773419  0.00067389
   0.50016382  0.24870177  0.24817973
   0.75351106  0.99858480  0.24827038
   0.74895334  0.25033975  0.99839375
   0.49921608  0.99966062  0.49717490
   0.49474875  0.24777531  0.75529674
   0.74869787  0.99675477  0.74864142
   0.75289974  0.24956728  0.50135864
   0.49922169  0.50058105  0.00257841
   0.49709672  0.74802880  0.25007855
   0.75001724  0.49962577  0.24878759
   0.74667972  0.74991702  0.99977266
   0.50372874  0.50118476  0.49962572
   0.50164048  0.75089279  0.75019511
   0.75208454  0.50040023  0.74903664
   0.75387288  0.74637170  0.49477067
