       N       E                     dE             d eps       ncg     rms          rms(c)
DAV:   1     0.668619333588E+03    0.66862E+03   -0.99551E+04  4704   0.111E+03
DAV:   2    -0.463349181318E+03   -0.11320E+04   -0.10718E+04  5840   0.221E+02
DAV:   3    -0.538083793992E+03   -0.74735E+02   -0.74054E+02  5672   0.559E+01
DAV:   4    -0.539723950523E+03   -0.16402E+01   -0.16331E+01  5680   0.900E+00
DAV:   5    -0.539770791747E+03   -0.46841E-01   -0.46766E-01  5568   0.144E+00    0.491E+01
DAV:   6    -0.483230582032E+03    0.56540E+02   -0.19001E+02  5336   0.234E+01    0.218E+01
DAV:   7    -0.481863327841E+03    0.13673E+01   -0.15540E+01  5872   0.697E+00    0.972E+00
DAV:   8    -0.481636675666E+03    0.22665E+00   -0.99819E-01  5400   0.194E+00    0.257E+00
DAV:   9    -0.481620474698E+03    0.16201E-01   -0.13469E-01  5424   0.784E-01    0.422E-01
DAV:  10    -0.481623928253E+03   -0.34536E-02   -0.12141E-02  5688   0.232E-01    0.217E-01
DAV:  11    -0.481624661950E+03   -0.73370E-03   -0.15834E-03  5096   0.102E-01    0.628E-02
DAV:  12    -0.481624657606E+03    0.43436E-05   -0.19106E-04  5672   0.321E-02    0.315E-02
DAV:  13    -0.481624663079E+03   -0.54729E-05   -0.40861E-05  5256   0.164E-02    0.960E-03
DAV:  14    -0.481624669948E+03   -0.68693E-05   -0.63517E-06  5440   0.499E-03    0.455E-03
DAV:  15    -0.481624671519E+03   -0.15704E-05   -0.86770E-07  5544   0.222E-03    0.334E-03
DAV:  16    -0.481624671417E+03    0.10190E-06   -0.44483E-08  5392   0.571E-04    0.157E-03
DAV:  17    -0.481624671387E+03    0.29424E-07   -0.29301E-08  3536   0.383E-04    0.542E-04
DAV:  18    -0.481624671387E+03    0.53842E-09   -0.46512E-09  2760   0.182E-04
   1 F= -.48162467E+03 E0= -.48162775E+03  d E =0.923711E-02
