<?xml version="1.0" encoding="ISO-8859-1"?>
<modeling>
 <generator>
  <i name="program" type="string">vasp </i>
  <i name="version" type="string">6.2.1  </i>
  <i name="subversion" type="string">16May21 (build Jun 06 2020 10:27:25) complex                          parallel </i>
  <i name="platform" type="string">LinuxIFC </i>
  <i name="date" type="string">2024 01 12 </i>
  <i name="time" type="string">18:09:58 </i>
 </generator>
 <incar>
  <i type="int" name="NELM">    60</i>
  <i type="int" name="IBRION">     1</i>
  <i name="EDIFF">      0.00000001</i>
  <i type="int" name="NSW">     0</i>
  <i type="int" name="ISIF">     3</i>
  <i type="int" name="ISYM">     0</i>
  <i type="logical" name="LWAVE"> F  </i>
  <i type="logical" name="LCHARG"> F  </i>
  <i type="string" name="GGA">PE</i>
 </incar>
 <primitive_cell>
  <structure name="primitive_cell" >
   <crystal>
    <varray name="basis" >
     <v>       8.74331558       0.00000000       0.00000000 </v>
     <v>       0.00000000       8.74331558       0.00000000 </v>
     <v>       0.00000000       0.00000000       8.74331558 </v>
    </varray>
    <i name="volume">    668.38771987 </i>
    <varray name="rec_basis" >
     <v>       0.11437309       0.00000000       0.00000000 </v>
     <v>       0.00000000       0.11437309       0.00000000 </v>
     <v>       0.00000000       0.00000000       0.11437309 </v>
    </varray>
   </crystal>
   <varray name="positions" >
    <v>       0.12630915       0.12792203       0.12999378 </v>
    <v>       0.12608139       0.37350222       0.37688180 </v>
    <v>       0.37600315       0.12620762       0.37559011 </v>
    <v>       0.37271292       0.37451238       0.12302904 </v>
    <v>       0.12401519       0.12602559       0.62727021 </v>
    <v>       0.12882746       0.37450546       0.87338881 </v>
    <v>       0.37320152       0.12369524       0.87451460 </v>
    <v>       0.37087897       0.37539929       0.62575037 </v>
    <v>       0.12707441       0.62435976       0.12598714 </v>
    <v>       0.12516798       0.87625291       0.37645003 </v>
    <v>       0.37238131       0.62505459       0.37610394 </v>
    <v>       0.37569451       0.87514270       0.12544947 </v>
    <v>       0.12350448       0.62616843       0.62178811 </v>
    <v>       0.12472118       0.87340592       0.87598052 </v>
    <v>       0.37520238       0.62804683       0.87565466 </v>
    <v>       0.37486923       0.87378366       0.62349856 </v>
    <v>       0.62317551       0.12516006       0.12306153 </v>
    <v>       0.62364735       0.37410105       0.37824266 </v>
    <v>       0.87262226       0.12724930       0.37500770 </v>
    <v>       0.87419370       0.37512631       0.12649111 </v>
    <v>       0.62482587       0.12137439       0.62373266 </v>
    <v>       0.62810447       0.37106368       0.87582903 </v>
    <v>       0.87203043       0.12646612       0.87357857 </v>
    <v>       0.87399070       0.37559746       0.62417133 </v>
    <v>       0.62459328       0.62256774       0.12525494 </v>
    <v>       0.62372661       0.87414634       0.37379244 </v>
    <v>       0.87439948       0.62418095       0.37472318 </v>
    <v>       0.87445435       0.87631807       0.12645098 </v>
    <v>       0.62354796       0.62635003       0.62518852 </v>
    <v>       0.62706290       0.87320107       0.87438180 </v>
    <v>       0.87658977       0.62408304       0.87720656 </v>
    <v>       0.87815984       0.87371302       0.62535428 </v>
    <v>       0.00038515       0.00129886       0.99997982 </v>
    <v>       0.00048413       0.24996245       0.25230746 </v>
    <v>       0.25048965       0.99987234       0.25133220 </v>
    <v>       0.25073884       0.25118725       0.00116533 </v>
    <v>       0.99625768       0.99814741       0.50053744 </v>
    <v>       0.00153302       0.24665489       0.75114310 </v>
    <v>       0.25023276       0.00042227       0.75023487 </v>
    <v>       0.24968809       0.24880378       0.50170667 </v>
    <v>       0.00271174       0.49888213       0.00023083 </v>
    <v>       0.99885314       0.74973836       0.25398399 </v>
    <v>       0.24967092       0.49953396       0.24671947 </v>
    <v>       0.24966672       0.75114610       0.00209296 </v>
    <v>       0.00025440       0.49918754       0.49953443 </v>
    <v>       0.99853384       0.74879805       0.75121330 </v>
    <v>       0.24939687       0.49952178       0.75208776 </v>
    <v>       0.24716396       0.74806239       0.49851369 </v>
    <v>       0.49721957       0.00018110       0.99857885 </v>
    <v>       0.50038738       0.25014692       0.24907505 </v>
    <v>       0.75251470       0.99969446       0.24923650 </v>
    <v>       0.74937281       0.24971884       0.99668167 </v>
    <v>       0.50019399       0.00111453       0.50163582 </v>
    <v>       0.49918790       0.25138815       0.75049740 </v>
    <v>       0.75168949       0.99983064       0.74847011 </v>
    <v>       0.74908343       0.25091700       0.49944042 </v>
    <v>       0.49747954       0.49799797       0.99756975 </v>
    <v>       0.49927089       0.75320421       0.24976660 </v>
    <v>       0.74829911       0.50023653       0.24899130 </v>
    <v>       0.74810164       0.75131076       0.99792882 </v>
    <v>       0.49800837       0.50049113       0.49873072 </v>
    <v>       0.49846478       0.74998146       0.75173223 </v>
    <v>       0.75014215       0.50205540       0.75028862 </v>
    <v>       0.75249364       0.74981344       0.49985647 </v>
   </varray>
  </structure>
  <varray name="primitive_index" >
   <v type="int" >        1 </v>
   <v type="int" >        2 </v>
   <v type="int" >        3 </v>
   <v type="int" >        4 </v>
   <v type="int" >        5 </v>
   <v type="int" >        6 </v>
   <v type="int" >        7 </v>
   <v type="int" >        8 </v>
   <v type="int" >        9 </v>
   <v type="int" >       10 </v>
   <v type="int" >       11 </v>
   <v type="int" >       12 </v>
   <v type="int" >       13 </v>
   <v type="int" >       14 </v>
   <v type="int" >       15 </v>
   <v type="int" >       16 </v>
   <v type="int" >       17 </v>
   <v type="int" >       18 </v>
   <v type="int" >       19 </v>
   <v type="int" >       20 </v>
   <v type="int" >       21 </v>
   <v type="int" >       22 </v>
   <v type="int" >       23 </v>
   <v type="int" >       24 </v>
   <v type="int" >       25 </v>
   <v type="int" >       26 </v>
   <v type="int" >       27 </v>
   <v type="int" >       28 </v>
   <v type="int" >       29 </v>
   <v type="int" >       30 </v>
   <v type="int" >       31 </v>
   <v type="int" >       32 </v>
   <v type="int" >       33 </v>
   <v type="int" >       34 </v>
   <v type="int" >       35 </v>
   <v type="int" >       36 </v>
   <v type="int" >       37 </v>
   <v type="int" >       38 </v>
   <v type="int" >       39 </v>
   <v type="int" >       40 </v>
   <v type="int" >       41 </v>
   <v type="int" >       42 </v>
   <v type="int" >       43 </v>
   <v type="int" >       44 </v>
   <v type="int" >       45 </v>
   <v type="int" >       46 </v>
   <v type="int" >       47 </v>
   <v type="int" >       48 </v>
   <v type="int" >       49 </v>
   <v type="int" >       50 </v>
   <v type="int" >       51 </v>
   <v type="int" >       52 </v>
   <v type="int" >       53 </v>
   <v type="int" >       54 </v>
   <v type="int" >       55 </v>
   <v type="int" >       56 </v>
   <v type="int" >       57 </v>
   <v type="int" >       58 </v>
   <v type="int" >       59 </v>
   <v type="int" >       60 </v>
   <v type="int" >       61 </v>
   <v type="int" >       62 </v>
   <v type="int" >       63 </v>
   <v type="int" >       64 </v>
  </varray>
 </primitive_cell>
 <kpoints>
  <generation param="Monkhorst-Pack">
   <v type="int" name="divisions">       3        3        3 </v>
   <v name="usershift">      0.00000000       0.00000000       0.00000000 </v>
   <v name="genvec1">      0.33333333       0.00000000       0.00000000 </v>
   <v name="genvec2">      0.00000000       0.33333333       0.00000000 </v>
   <v name="genvec3">      0.00000000       0.00000000       0.33333333 </v>
   <v name="shift">      0.00000000       0.00000000       0.00000000 </v>
  </generation>
  <varray name="kpointlist" >
   <v>       0.00000000       0.00000000       0.00000000 </v>
   <v>       0.33333333       0.00000000       0.00000000 </v>
   <v>       0.00000000       0.33333333       0.00000000 </v>
   <v>       0.00000000       0.00000000       0.33333333 </v>
   <v>       0.33333333       0.33333333       0.00000000 </v>
   <v>       0.00000000       0.33333333       0.33333333 </v>
   <v>       0.33333333       0.00000000       0.33333333 </v>
   <v>      -0.33333333       0.33333333       0.00000000 </v>
   <v>      -0.33333333       0.00000000       0.33333333 </v>
   <v>       0.00000000      -0.33333333       0.33333333 </v>
   <v>       0.33333333       0.33333333       0.33333333 </v>
   <v>      -0.33333333       0.33333333       0.33333333 </v>
   <v>      -0.33333333      -0.33333333       0.33333333 </v>
   <v>       0.33333333      -0.33333333       0.33333333 </v>
  </varray>
  <varray name="weights" >
   <v>       0.03703704 </v>
   <v>       0.07407407 </v>
   <v>       0.07407407 </v>
   <v>       0.07407407 </v>
   <v>       0.07407407 </v>
   <v>       0.07407407 </v>
   <v>       0.07407407 </v>
   <v>       0.07407407 </v>
   <v>       0.07407407 </v>
   <v>       0.07407407 </v>
   <v>       0.07407407 </v>
   <v>       0.07407407 </v>
   <v>       0.07407407 </v>
   <v>       0.07407407 </v>
  </varray>
 </kpoints>
 <parameters>
  <separator name="general" >
   <i type="string" name="SYSTEM">unknown system</i>
   <i type="logical" name="LCOMPAT"> F  </i>
  </separator>
  <separator name="electronic" >
   <i type="string" name="PREC">normal</i>
   <i name="ENMAX">    400.00000000</i>
   <i name="ENAUG">    644.87300000</i>
   <i name="EDIFF">      0.00000001</i>
   <i type="int" name="IALGO">    38</i>
   <i type="int" name="IWAVPR">    10</i>
   <i type="int" name="NBANDS">   168</i>
   <i type="int" name="NBANDSLOW">    -1</i>
   <i type="int" name="NBANDSHIGH">    -1</i>
   <i name="NELECT">    256.00000000</i>
   <i type="int" name="TURBO">     0</i>
   <i type="int" name="IRESTART">     0</i>
   <i type="int" name="NREBOOT">     0</i>
   <i type="int" name="NMIN">     0</i>
   <i name="EREF">      0.00000000</i>
   <separator name="electronic smearing" >
    <i type="int" name="ISMEAR">     1</i>
    <i name="SIGMA">      0.20000000</i>
    <i name="KSPACING">      0.50000000</i>
    <i type="logical" name="KGAMMA"> T  </i>
    <i type="logical" name="KBLOWUP"> T  </i>
   </separator>
   <separator name="electronic projectors" >
    <i type="logical" name="LREAL"> F  </i>
    <v name="ROPT">      0.00000000      0.00000000</v>
    <i type="int" name="LMAXPAW">  -100</i>
    <i type="int" name="LMAXMIX">     2</i>
    <i type="logical" name="NLSPLINE"> F  </i>
   </separator>
   <separator name="electronic startup" >
    <i type="int" name="ISTART">     0</i>
    <i type="int" name="ICHARG">     2</i>
    <i type="int" name="INIWAV">     1</i>
   </separator>
   <separator name="electronic spin" >
    <i type="int" name="ISPIN">     1</i>
    <i type="logical" name="LNONCOLLINEAR"> F  </i>
    <v name="MAGMOM">      1.00000000      1.00000000      1.00000000      1.00000000      1.00000000      1.00000000      1.00000000      1.00000000      1.00000000      1.00000000      1.00000000      1.00000000      1.00000000      1.00000000      1.00000000      1.00000000      1.00000000      1.00000000      1.00000000      1.00000000
      1.00000000      1.00000000      1.00000000      1.00000000      1.00000000      1.00000000      1.00000000      1.00000000      1.00000000      1.00000000      1.00000000      1.00000000      1.00000000      1.00000000      1.00000000      1.00000000      1.00000000      1.00000000      1.00000000      1.00000000
      1.00000000      1.00000000      1.00000000      1.00000000      1.00000000      1.00000000      1.00000000      1.00000000      1.00000000      1.00000000      1.00000000      1.00000000      1.00000000      1.00000000      1.00000000      1.00000000      1.00000000      1.00000000      1.00000000      1.00000000
      1.00000000      1.00000000      1.00000000      1.00000000</v>
    <i name="NUPDOWN">     -1.00000000</i>
    <i type="logical" name="LSORBIT"> F  </i>
    <v name="SAXIS">      0.00000000      0.00000000      1.00000000</v>
    <i type="logical" name="LSPIRAL"> F  </i>
    <v name="QSPIRAL">      0.00000000      0.00000000      0.00000000</v>
    <i type="logical" name="LZEROZ"> F  </i>
   </separator>
   <separator name="electronic exchange-correlation" >
    <i type="logical" name="LASPH"> F  </i>
    <i type="logical" name="LMETAGGA"> F  </i>
   </separator>
   <separator name="electronic convergence" >
    <i type="int" name="NELM">    60</i>
    <i type="int" name="NELMDL">    -5</i>
    <i type="int" name="NELMIN">     2</i>
    <i name="ENINI">    400.00000000</i>
    <separator name="electronic convergence detail" >
     <i type="logical" name="LDIAG"> T  </i>
     <i type="logical" name="LSUBROT"> F  </i>
     <i name="WEIMIN">      0.00000000</i>
     <i name="EBREAK">      0.00000000</i>
     <i name="DEPER">      0.30000000</i>
     <i type="int" name="NRMM">     4</i>
     <i name="TIME">      0.40000000</i>
    </separator>
   </separator>
   <separator name="electronic mixer" >
    <i name="AMIX">      0.40000000</i>
    <i name="BMIX">      1.00000000</i>
    <i name="AMIN">      0.10000000</i>
    <i name="AMIX_MAG">      1.60000000</i>
    <i name="BMIX_MAG">      1.00000000</i>
    <separator name="electronic mixer details" >
     <i type="int" name="IMIX">     4</i>
     <i type="logical" name="MIXFIRST"> F  </i>
     <i type="int" name="MAXMIX">   -45</i>
     <i name="WC">    100.00000000</i>
     <i type="int" name="INIMIX">     1</i>
     <i type="int" name="MIXPRE">     1</i>
     <i type="int" name="MREMOVE">     5</i>
    </separator>
   </separator>
   <separator name="electronic dipolcorrection" >
    <i type="logical" name="LDIPOL"> F  </i>
    <i type="logical" name="LMONO"> F  </i>
    <i type="int" name="IDIPOL">     0</i>
    <i name="EPSILON">      1.00000000</i>
    <v name="DIPOL">   -100.00000000   -100.00000000   -100.00000000</v>
    <i name="EFIELD">      0.00000000</i>
   </separator>
  </separator>
  <separator name="grids" >
   <i type="int" name="NGX">    48</i>
   <i type="int" name="NGY">    48</i>
   <i type="int" name="NGZ">    48</i>
   <i type="int" name="NGXF">    96</i>
   <i type="int" name="NGYF">    96</i>
   <i type="int" name="NGZF">    96</i>
   <i type="logical" name="ADDGRID"> F  </i>
  </separator>
  <separator name="ionic" >
   <i type="int" name="NSW">     0</i>
   <i type="int" name="IBRION">    -1</i>
   <i type="int" name="MDALGO">     0</i>
   <i type="int" name="ISIF">     3</i>
   <i name="PSTRESS">      0.00000000</i>
   <i name="EDIFFG">      0.00000010</i>
   <i type="int" name="NFREE">     0</i>
   <i name="POTIM">      0.50000000</i>
   <i name="SMASS">     -3.00000000</i>
   <i name="SCALEE">      1.00000000</i>
  </separator>
  <separator name="ionic md" >
   <i name="TEBEG">      0.00010000</i>
   <i name="TEEND">      0.00010000</i>
   <i type="int" name="NBLOCK">     1</i>
   <i type="int" name="KBLOCK">     1</i>
   <i type="int" name="NPACO">   256</i>
   <i name="APACO">     16.00000000</i>
  </separator>
  <separator name="symmetry" >
   <i type="int" name="ISYM">     0</i>
   <i name="SYMPREC">      0.00001000</i>
  </separator>
  <separator name="dos" >
   <i type="int" name="LORBIT">     0</i>
   <v name="RWIGS">     -1.00000000     -1.00000000</v>
   <i type="int" name="NEDOS">   301</i>
   <i name="EMIN">     10.00000000</i>
   <i name="EMAX">    -10.00000000</i>
   <i name="EFERMI">      0.00000000</i>
  </separator>
  <separator name="writing" >
   <i type="int" name="NWRITE">     2</i>
   <i type="logical" name="LWAVE"> F  </i>
   <i type="logical" name="LDOWNSAMPLE"> F  </i>
   <i type="logical" name="LCHARG"> F  </i>
   <i type="logical" name="LPARD"> F  </i>
   <i type="logical" name="LVTOT"> F  </i>
   <i type="logical" name="LVHAR"> F  </i>
   <i type="logical" name="LELF"> F  </i>
   <i type="logical" name="LOPTICS"> F  </i>
   <v name="STM">      0.00000000      0.00000000      0.00000000      0.00000000      0.00000000      0.00000000      0.00000000</v>
  </separator>
  <separator name="performance" >
   <i type="int" name="NPAR">     8</i>
   <i type="int" name="NSIM">     4</i>
   <i type="int" name="NBLK">    -1</i>
   <i type="logical" name="LPLANE"> T  </i>
   <i type="logical" name="LSCALAPACK"> T  </i>
   <i type="logical" name="LSCAAWARE"> F  </i>
   <i type="logical" name="LSCALU"> F  </i>
   <i type="logical" name="LASYNC"> F  </i>
   <i type="logical" name="LORBITALREAL"> F  </i>
  </separator>
  <separator name="miscellaneous" >
   <i type="int" name="IDIOT">     3</i>
   <i type="int" name="PHON_NSTRUCT">    -1</i>
   <i type="logical" name="LMUSIC"> F  </i>
   <v name="POMASS">     12.01100000     28.08500000</v>
   <v name="DARWINR">      0.00000000      0.00000000</v>
   <v name="DARWINV">      1.00000000      1.00000000</v>
   <i type="logical" name="LCORR"> T  </i>
  </separator>
  <i type="logical" name="GGA_COMPAT"> T  </i>
  <i type="logical" name="LBERRY"> F  </i>
  <i type="int" name="ICORELEVEL">     0</i>
  <i type="logical" name="LDAU"> F  </i>
  <i type="int" name="I_CONSTRAINED_M">     0</i>
  <separator name="electronic exchange-correlation" >
   <i type="string" name="GGA">PE</i>
   <i type="int" name="VOSKOWN">     0</i>
   <i type="logical" name="LHFCALC"> F  </i>
   <i type="string" name="PRECFOCK"></i>
   <i type="logical" name="LSYMGRAD"> F  </i>
   <i type="logical" name="LHFONE"> F  </i>
   <i type="logical" name="LRHFCALC"> F  </i>
   <i type="logical" name="LTHOMAS"> F  </i>
   <i type="logical" name="LMODELHF"> F  </i>
   <i type="logical" name="LFOCKACE"> F  </i>
   <i name="ENCUT4O">     -1.00000000</i>
   <i type="int" name="EXXOEP">     0</i>
   <i type="int" name="FOURORBIT">     0</i>
   <i name="AEXX">      0.00000000</i>
   <i name="HFALPHA">      0.00000000</i>
   <i name="MCALPHA">      0.00000000</i>
   <i name="ALDAX">      1.00000000</i>
   <i name="AGGAX">      1.00000000</i>
   <i name="ALDAC">      1.00000000</i>
   <i name="AGGAC">      1.00000000</i>
   <i type="int" name="NKREDX">     1</i>
   <i type="int" name="NKREDY">     1</i>
   <i type="int" name="NKREDZ">     1</i>
   <i type="logical" name="SHIFTRED"> F  </i>
   <i type="logical" name="ODDONLY"> F  </i>
   <i type="logical" name="EVENONLY"> F  </i>
   <i type="int" name="LMAXFOCK">     0</i>
   <i type="int" name="NMAXFOCKAE">     0</i>
   <i type="logical" name="LFOCKAEDFT"> F  </i>
   <i name="HFSCREEN">      0.00000000</i>
   <i name="HFSCREENC">      0.00000000</i>
   <i type="int" name="NBANDSGWLOW">     0</i>
  </separator>
  <separator name="vdW DFT" >
   <i type="logical" name="LUSE_VDW"> F  </i>
   <i name="Zab_VDW">     -0.84910000</i>
   <i name="PARAM1">      0.12340000</i>
   <i name="PARAM2">      1.00000000</i>
   <i name="PARAM3">      0.00000000</i>
  </separator>
  <separator name="model GW" >
   <i type="int" name="MODEL_GW">     0</i>
   <i name="MODEL_EPS0">      6.26613487</i>
   <i name="MODEL_ALPHA">      1.00000000</i>
  </separator>
  <separator name="linear response parameters" >
   <i type="logical" name="LEPSILON"> F  </i>
   <i type="logical" name="LRPA"> F  </i>
   <i type="logical" name="LNABLA"> F  </i>
   <i type="logical" name="LVEL"> F  </i>
   <i type="int" name="KINTER">     0</i>
   <i name="CSHIFT">      0.10000000</i>
   <i name="OMEGAMAX">     -1.00000000</i>
   <i name="DEG_THRESHOLD">      0.00200000</i>
   <i name="RTIME">     -0.10000000</i>
   <i name="WPLASMAI">      0.00000000</i>
   <v name="DFIELD">      0.00000000      0.00000000      0.00000000</v>
   <v name="WPLASMA">      0.00000000      0.00000000      0.00000000      0.00000000      0.00000000      0.00000000      0.00000000      0.00000000      0.00000000</v>
  </separator>
  <separator name="orbital magnetization" >
   <i type="logical" name="NUCIND"> F  </i>
   <v name="MAGPOS">      0.00000000      0.00000000      0.00000000</v>
   <i type="logical" name="LNICSALL"> T  </i>
   <i type="logical" name="ORBITALMAG"> F  </i>
   <i type="logical" name="LMAGBLOCH"> F  </i>
   <i type="logical" name="LCHIMAG"> F  </i>
   <i type="logical" name="LGAUGE"> T  </i>
   <i type="int" name="MAGATOM">     0</i>
   <v name="MAGDIPOL">      0.00000000      0.00000000      0.00000000</v>
   <v name="AVECCONST">      0.00000000      0.00000000      0.00000000</v>
  </separator>
  <separator name="response functions" >
   <i type="logical" name="LFINITE_TEMPERATURE"> F  </i>
   <i type="logical" name="LADDER"> F  </i>
   <i type="logical" name="LRPAFORCE"> F  </i>
   <i type="logical" name="LFXC"> F  </i>
   <i type="logical" name="LHARTREE"> T  </i>
   <i type="int" name="IBSE">     0</i>
   <v type="int" name="KPOINT">    -1     0     0     0</v>
   <i type="logical" name="LTCTC"> F  </i>
   <i type="logical" name="LTCTE"> F  </i>
   <i type="logical" name="LTETE"> F  </i>
   <i type="logical" name="LTRIPLET"> F  </i>
   <i type="logical" name="LFXCEPS"> F  </i>
   <i type="logical" name="LFXHEG"> F  </i>
   <i type="int" name="NATURALO">     2</i>
   <i type="logical" name="LHOLEGF"> F  </i>
   <i type="logical" name="L2ORDER"> F  </i>
   <i type="logical" name="LDMP1"> F  </i>
   <i type="logical" name="LMP2LT"> F  </i>
   <i type="logical" name="LSMP2LT"> F  </i>
   <i type="logical" name="LGWLF"> F  </i>
   <i name="ENCUTGW">     -2.00000000</i>
   <i name="ENCUTGWSOFT">     -2.00000000</i>
   <i name="ENCUTLF">     -1.00000000</i>
   <i type="logical" name="LESF_SPLINES"> F  </i>
   <i type="int" name="LMAXMP2">    -1</i>
   <i name="SCISSOR">      0.00000000</i>
   <i type="int" name="NOMEGA">     0</i>
   <i type="int" name="NOMEGAR">     0</i>
   <i type="int" name="NBANDSGW">    -1</i>
   <i type="int" name="NBANDSO">    -1</i>
   <i type="int" name="NBANDSV">    -1</i>
   <i type="int" name="NELM">    60</i>
   <i type="int" name="NELMHF">     1</i>
   <i type="int" name="DIM">     3</i>
   <i type="int" name="IESPILON">     4</i>
   <i type="int" name="ANTIRES">     0</i>
   <i name="OMEGAMAX">    -30.00000000</i>
   <i name="OMEGAMIN">    -30.00000000</i>
   <i name="OMEGATL">   -200.00000000</i>
   <i type="int" name="OMEGAGRID">     0</i>
   <i name="CSHIFT">     -0.10000000</i>
   <i type="logical" name="LSELFENERGY"> F  </i>
   <i type="logical" name="LSPECTRAL"> F  </i>
   <i type="logical" name="LSPECTRALGW"> F  </i>
   <i type="logical" name="LSINGLES"> F  </i>
   <i type="logical" name="LFERMIGW"> F  </i>
   <i type="logical" name="ODDONLYGW"> F  </i>
   <i type="logical" name="EVENONLYGW"> F  </i>
   <i type="int" name="NKREDLFX">     1</i>
   <i type="int" name="NKREDLFY">     1</i>
   <i type="int" name="NKREDLFZ">     1</i>
   <i type="int" name="MAXMEM">  2800</i>
   <i type="int" name="TELESCOPE">     0</i>
   <i type="int" name="NTAUPAR">    -1</i>
   <i type="int" name="NOMEGAPAR">    -1</i>
   <i name="DAMP_NEWTON">      0.80000001</i>
   <i name="LAMBDA">      1.00000000</i>
  </separator>
  <separator name="External order field" >
   <i name="OFIELD_KAPPA">      0.00000000</i>
   <v name="OFIELD_K">      0.00000000      0.00000000      0.00000000</v>
   <i name="OFIELD_Q6_NEAR">      0.00000000</i>
   <i name="OFIELD_Q6_FAR">      0.00000000</i>
   <i name="OFIELD_A">      0.00000000</i>
  </separator>
 </parameters>
 <atominfo>
  <atoms>      64 </atoms>
  <types>       2 </types>
  <array name="atoms" >
   <dimension dim="1">ion</dimension>
   <field type="string">element</field>
   <field type="int">atomtype</field>
   <set>
    <rc><c>C </c><c>   1</c></rc>
    <rc><c>C </c><c>   1</c></rc>
    <rc><c>C </c><c>   1</c></rc>
    <rc><c>C </c><c>   1</c></rc>
    <rc><c>C </c><c>   1</c></rc>
    <rc><c>C </c><c>   1</c></rc>
    <rc><c>C </c><c>   1</c></rc>
    <rc><c>C </c><c>   1</c></rc>
    <rc><c>C </c><c>   1</c></rc>
    <rc><c>C </c><c>   1</c></rc>
    <rc><c>C </c><c>   1</c></rc>
    <rc><c>C </c><c>   1</c></rc>
    <rc><c>C </c><c>   1</c></rc>
    <rc><c>C </c><c>   1</c></rc>
    <rc><c>C </c><c>   1</c></rc>
    <rc><c>C </c><c>   1</c></rc>
    <rc><c>C </c><c>   1</c></rc>
    <rc><c>C </c><c>   1</c></rc>
    <rc><c>C </c><c>   1</c></rc>
    <rc><c>C </c><c>   1</c></rc>
    <rc><c>C </c><c>   1</c></rc>
    <rc><c>C </c><c>   1</c></rc>
    <rc><c>C </c><c>   1</c></rc>
    <rc><c>C </c><c>   1</c></rc>
    <rc><c>C </c><c>   1</c></rc>
    <rc><c>C </c><c>   1</c></rc>
    <rc><c>C </c><c>   1</c></rc>
    <rc><c>C </c><c>   1</c></rc>
    <rc><c>C </c><c>   1</c></rc>
    <rc><c>C </c><c>   1</c></rc>
    <rc><c>C </c><c>   1</c></rc>
    <rc><c>C </c><c>   1</c></rc>
    <rc><c>Si</c><c>   2</c></rc>
    <rc><c>Si</c><c>   2</c></rc>
    <rc><c>Si</c><c>   2</c></rc>
    <rc><c>Si</c><c>   2</c></rc>
    <rc><c>Si</c><c>   2</c></rc>
    <rc><c>Si</c><c>   2</c></rc>
    <rc><c>Si</c><c>   2</c></rc>
    <rc><c>Si</c><c>   2</c></rc>
    <rc><c>Si</c><c>   2</c></rc>
    <rc><c>Si</c><c>   2</c></rc>
    <rc><c>Si</c><c>   2</c></rc>
    <rc><c>Si</c><c>   2</c></rc>
    <rc><c>Si</c><c>   2</c></rc>
    <rc><c>Si</c><c>   2</c></rc>
    <rc><c>Si</c><c>   2</c></rc>
    <rc><c>Si</c><c>   2</c></rc>
    <rc><c>Si</c><c>   2</c></rc>
    <rc><c>Si</c><c>   2</c></rc>
    <rc><c>Si</c><c>   2</c></rc>
    <rc><c>Si</c><c>   2</c></rc>
    <rc><c>Si</c><c>   2</c></rc>
    <rc><c>Si</c><c>   2</c></rc>
    <rc><c>Si</c><c>   2</c></rc>
    <rc><c>Si</c><c>   2</c></rc>
    <rc><c>Si</c><c>   2</c></rc>
    <rc><c>Si</c><c>   2</c></rc>
    <rc><c>Si</c><c>   2</c></rc>
    <rc><c>Si</c><c>   2</c></rc>
    <rc><c>Si</c><c>   2</c></rc>
    <rc><c>Si</c><c>   2</c></rc>
    <rc><c>Si</c><c>   2</c></rc>
    <rc><c>Si</c><c>   2</c></rc>
   </set>
  </array>
  <array name="atomtypes" >
   <dimension dim="1">type</dimension>
   <field type="int">atomspertype</field>
   <field type="string">element</field>
   <field>mass</field>
   <field>valence</field>
   <field type="string">pseudopotential</field>
   <set>
    <rc><c>  32</c><c>C </c><c>     12.01100000</c><c>      4.00000000</c><c>  PAW_PBE C 08Apr2002                   </c></rc>
    <rc><c>  32</c><c>Si</c><c>     28.08500000</c><c>      4.00000000</c><c>  PAW_PBE Si 05Jan2001                  </c></rc>
   </set>
  </array>
 </atominfo>
 <structure name="initialpos" >
  <crystal>
   <varray name="basis" >
    <v>       8.74331558       0.00000000       0.00000000 </v>
    <v>       0.00000000       8.74331558       0.00000000 </v>
    <v>       0.00000000       0.00000000       8.74331558 </v>
   </varray>
   <i name="volume">    668.38771987 </i>
   <varray name="rec_basis" >
    <v>       0.11437309       0.00000000       0.00000000 </v>
    <v>       0.00000000       0.11437309       0.00000000 </v>
    <v>       0.00000000       0.00000000       0.11437309 </v>
   </varray>
  </crystal>
  <varray name="positions" >
   <v>       0.12630915       0.12792203       0.12999378 </v>
   <v>       0.12608139       0.37350222       0.37688180 </v>
   <v>       0.37600315       0.12620762       0.37559011 </v>
   <v>       0.37271292       0.37451238       0.12302904 </v>
   <v>       0.12401519       0.12602559       0.62727021 </v>
   <v>       0.12882746       0.37450546       0.87338881 </v>
   <v>       0.37320152       0.12369524       0.87451460 </v>
   <v>       0.37087897       0.37539929       0.62575037 </v>
   <v>       0.12707441       0.62435976       0.12598714 </v>
   <v>       0.12516798       0.87625291       0.37645003 </v>
   <v>       0.37238131       0.62505459       0.37610394 </v>
   <v>       0.37569451       0.87514270       0.12544947 </v>
   <v>       0.12350448       0.62616843       0.62178811 </v>
   <v>       0.12472118       0.87340592       0.87598052 </v>
   <v>       0.37520238       0.62804683       0.87565466 </v>
   <v>       0.37486923       0.87378366       0.62349856 </v>
   <v>       0.62317551       0.12516006       0.12306153 </v>
   <v>       0.62364735       0.37410105       0.37824266 </v>
   <v>       0.87262226       0.12724930       0.37500770 </v>
   <v>       0.87419370       0.37512631       0.12649111 </v>
   <v>       0.62482587       0.12137439       0.62373266 </v>
   <v>       0.62810447       0.37106368       0.87582903 </v>
   <v>       0.87203043       0.12646612       0.87357857 </v>
   <v>       0.87399070       0.37559746       0.62417133 </v>
   <v>       0.62459328       0.62256774       0.12525494 </v>
   <v>       0.62372661       0.87414634       0.37379244 </v>
   <v>       0.87439948       0.62418095       0.37472318 </v>
   <v>       0.87445435       0.87631807       0.12645098 </v>
   <v>       0.62354796       0.62635003       0.62518852 </v>
   <v>       0.62706290       0.87320107       0.87438180 </v>
   <v>       0.87658977       0.62408304       0.87720656 </v>
   <v>       0.87815984       0.87371302       0.62535428 </v>
   <v>       0.00038515       0.00129886       0.99997982 </v>
   <v>       0.00048413       0.24996245       0.25230746 </v>
   <v>       0.25048965       0.99987234       0.25133220 </v>
   <v>       0.25073884       0.25118725       0.00116533 </v>
   <v>       0.99625768       0.99814741       0.50053744 </v>
   <v>       0.00153302       0.24665489       0.75114310 </v>
   <v>       0.25023276       0.00042227       0.75023487 </v>
   <v>       0.24968809       0.24880378       0.50170667 </v>
   <v>       0.00271174       0.49888213       0.00023083 </v>
   <v>       0.99885314       0.74973836       0.25398399 </v>
   <v>       0.24967092       0.49953396       0.24671947 </v>
   <v>       0.24966672       0.75114610       0.00209296 </v>
   <v>       0.00025440       0.49918754       0.49953443 </v>
   <v>       0.99853384       0.74879805       0.75121330 </v>
   <v>       0.24939687       0.49952178       0.75208776 </v>
   <v>       0.24716396       0.74806239       0.49851369 </v>
   <v>       0.49721957       0.00018110       0.99857885 </v>
   <v>       0.50038738       0.25014692       0.24907505 </v>
   <v>       0.75251470       0.99969446       0.24923650 </v>
   <v>       0.74937281       0.24971884       0.99668167 </v>
   <v>       0.50019399       0.00111453       0.50163582 </v>
   <v>       0.49918790       0.25138815       0.75049740 </v>
   <v>       0.75168949       0.99983064       0.74847011 </v>
   <v>       0.74908343       0.25091700       0.49944042 </v>
   <v>       0.49747954       0.49799797       0.99756975 </v>
   <v>       0.49927089       0.75320421       0.24976660 </v>
   <v>       0.74829911       0.50023653       0.24899130 </v>
   <v>       0.74810164       0.75131076       0.99792882 </v>
   <v>       0.49800837       0.50049113       0.49873072 </v>
   <v>       0.49846478       0.74998146       0.75173223 </v>
   <v>       0.75014215       0.50205540       0.75028862 </v>
   <v>       0.75249364       0.74981344       0.49985647 </v>
  </varray>
 </structure>
 <calculation>
  <scstep>
   <time name="dav">    4.81    4.81</time>
   <time name="total">    4.83    4.84</time>
   <energy>
    <i name="alphaZ">    354.85177120 </i>
    <i name="ewald">  -9082.95193176 </i>
    <i name="hartreedc">   -671.02104834 </i>
    <i name="XCdc">    145.83522604 </i>
    <i name="pawpsdc">   6292.66707184 </i>
    <i name="pawaedc">  -5747.90303932 </i>
    <i name="eentropy">      0.00703363 </i>
    <i name="bandstr">   1370.95920711 </i>
    <i name="atom">   8006.17504320 </i>
    <i name="e_fr_energy">    668.61933359 </i>
    <i name="e_wo_entrp">    668.61229996 </i>
    <i name="e_0_energy">    668.61698905 </i>
   </energy>
  </scstep>
  <scstep>
   <time name="dav">    5.63    5.63</time>
   <time name="total">    5.63    5.64</time>
   <energy>
    <i name="e_fr_energy">   -463.34918132 </i>
    <i name="e_wo_entrp">   -463.36380939 </i>
    <i name="e_0_energy">   -463.35405734 </i>
   </energy>
  </scstep>
  <scstep>
   <time name="dav">    5.50    5.50</time>
   <time name="total">    5.51    5.51</time>
   <energy>
    <i name="e_fr_energy">   -538.08379399 </i>
    <i name="e_wo_entrp">   -538.10338265 </i>
    <i name="e_0_energy">   -538.09032355 </i>
   </energy>
  </scstep>
  <scstep>
   <time name="dav">    5.50    5.50</time>
   <time name="total">    5.50    5.50</time>
   <energy>
    <i name="e_fr_energy">   -539.72395052 </i>
    <i name="e_wo_entrp">   -539.74429142 </i>
    <i name="e_0_energy">   -539.73073082 </i>
   </energy>
  </scstep>
  <scstep>
   <time name="dav">    5.42    5.42</time>
   <time name="total">    5.54    5.54</time>
   <energy>
    <i name="e_fr_energy">   -539.77079175 </i>
    <i name="e_wo_entrp">   -539.79110393 </i>
    <i name="e_0_energy">   -539.77756248 </i>
   </energy>
  </scstep>
  <scstep>
   <time name="dav">    5.24    5.24</time>
   <time name="total">    5.39    5.39</time>
   <energy>
    <i name="e_fr_energy">   -483.23058203 </i>
    <i name="e_wo_entrp">   -483.24072628 </i>
    <i name="e_0_energy">   -483.23396345 </i>
   </energy>
  </scstep>
  <scstep>
   <time name="dav">    5.65    5.65</time>
   <time name="total">    5.83    5.84</time>
   <energy>
    <i name="e_fr_energy">   -481.86332784 </i>
    <i name="e_wo_entrp">   -481.87246932 </i>
    <i name="e_0_energy">   -481.86637500 </i>
   </energy>
  </scstep>
  <scstep>
   <time name="dav">    5.28    5.28</time>
   <time name="total">    5.43    5.43</time>
   <energy>
    <i name="e_fr_energy">   -481.63667567 </i>
    <i name="e_wo_entrp">   -481.64602375 </i>
    <i name="e_0_energy">   -481.63979169 </i>
   </energy>
  </scstep>
  <scstep>
   <time name="dav">    5.31    5.31</time>
   <time name="total">    5.46    5.46</time>
   <energy>
    <i name="e_fr_energy">   -481.62047470 </i>
    <i name="e_wo_entrp">   -481.62971867 </i>
    <i name="e_0_energy">   -481.62355602 </i>
   </energy>
  </scstep>
  <scstep>
   <time name="dav">    5.50    5.50</time>
   <time name="total">    5.66    5.66</time>
   <energy>
    <i name="e_fr_energy">   -481.62392825 </i>
    <i name="e_wo_entrp">   -481.63316134 </i>
    <i name="e_0_energy">   -481.62700595 </i>
   </energy>
  </scstep>
  <scstep>
   <time name="dav">    5.05    5.05</time>
   <time name="total">    5.21    5.21</time>
   <energy>
    <i name="e_fr_energy">   -481.62466195 </i>
    <i name="e_wo_entrp">   -481.63389925 </i>
    <i name="e_0_energy">   -481.62774105 </i>
   </energy>
  </scstep>
  <scstep>
   <time name="dav">    5.50    5.50</time>
   <time name="total">    5.66    5.67</time>
   <energy>
    <i name="e_fr_energy">   -481.62465761 </i>
    <i name="e_wo_entrp">   -481.63389396 </i>
    <i name="e_0_energy">   -481.62773639 </i>
   </energy>
  </scstep>
  <scstep>
   <time name="dav">    5.19    5.19</time>
   <time name="total">    5.35    5.35</time>
   <energy>
    <i name="e_fr_energy">   -481.62466308 </i>
    <i name="e_wo_entrp">   -481.63390009 </i>
    <i name="e_0_energy">   -481.62774208 </i>
   </energy>
  </scstep>
  <scstep>
   <time name="dav">    5.32    5.32</time>
   <time name="total">    5.48    5.48</time>
   <energy>
    <i name="e_fr_energy">   -481.62466995 </i>
    <i name="e_wo_entrp">   -481.63390725 </i>
    <i name="e_0_energy">   -481.62774905 </i>
   </energy>
  </scstep>
  <scstep>
   <time name="dav">    5.40    5.40</time>
   <time name="total">    5.56    5.56</time>
   <energy>
    <i name="e_fr_energy">   -481.62467152 </i>
    <i name="e_wo_entrp">   -481.63390864 </i>
    <i name="e_0_energy">   -481.62775056 </i>
   </energy>
  </scstep>
  <scstep>
   <time name="dav">    5.29    5.29</time>
   <time name="total">    5.45    5.45</time>
   <energy>
    <i name="e_fr_energy">   -481.62467142 </i>
    <i name="e_wo_entrp">   -481.63390855 </i>
    <i name="e_0_energy">   -481.62775046 </i>
   </energy>
  </scstep>
  <scstep>
   <time name="dav">    3.94    3.94</time>
   <time name="total">    4.09    4.09</time>
   <energy>
    <i name="e_fr_energy">   -481.62467139 </i>
    <i name="e_wo_entrp">   -481.63390850 </i>
    <i name="e_0_energy">   -481.62775043 </i>
   </energy>
  </scstep>
  <scstep>
   <time name="dav">    3.37    3.37</time>
   <time name="total">    3.40    3.40</time>
   <energy>
    <i name="alphaZ">    354.85177120 </i>
    <i name="ewald">  -9082.95193176 </i>
    <i name="hartreedc">  -1023.67814488 </i>
    <i name="XCdc">    179.28163116 </i>
    <i name="pawpsdc">  33015.71028425 </i>
    <i name="pawaedc"> -32476.63703841 </i>
    <i name="eentropy">      0.00923711 </i>
    <i name="bandstr">    545.61447673 </i>
    <i name="atom">   8006.17504320 </i>
    <i name="e_fr_energy">   -481.62467139 </i>
    <i name="e_wo_entrp">   -481.63390849 </i>
    <i name="e_0_energy">   -481.62775042 </i>
   </energy>
  </scstep>
  <structure>
   <crystal>
    <varray name="basis" >
     <v>       8.74331558       0.00000000       0.00000000 </v>
     <v>       0.00000000       8.74331558       0.00000000 </v>
     <v>       0.00000000       0.00000000       8.74331558 </v>
    </varray>
    <i name="volume">    668.38771987 </i>
    <varray name="rec_basis" >
     <v>       0.11437309       0.00000000       0.00000000 </v>
     <v>       0.00000000       0.11437309       0.00000000 </v>
     <v>       0.00000000       0.00000000       0.11437309 </v>
    </varray>
   </crystal>
   <varray name="positions" >
    <v>       0.12630915       0.12792203       0.12999378 </v>
    <v>       0.12608139       0.37350222       0.37688180 </v>
    <v>       0.37600315       0.12620762       0.37559011 </v>
    <v>       0.37271292       0.37451238       0.12302904 </v>
    <v>       0.12401519       0.12602559       0.62727021 </v>
    <v>       0.12882746       0.37450546       0.87338881 </v>
    <v>       0.37320152       0.12369524       0.87451460 </v>
    <v>       0.37087897       0.37539929       0.62575037 </v>
    <v>       0.12707441       0.62435976       0.12598714 </v>
    <v>       0.12516798       0.87625291       0.37645003 </v>
    <v>       0.37238131       0.62505459       0.37610394 </v>
    <v>       0.37569451       0.87514270       0.12544947 </v>
    <v>       0.12350448       0.62616843       0.62178811 </v>
    <v>       0.12472118       0.87340592       0.87598052 </v>
    <v>       0.37520238       0.62804683       0.87565466 </v>
    <v>       0.37486923       0.87378366       0.62349856 </v>
    <v>       0.62317551       0.12516006       0.12306153 </v>
    <v>       0.62364735       0.37410105       0.37824266 </v>
    <v>       0.87262226       0.12724930       0.37500770 </v>
    <v>       0.87419370       0.37512631       0.12649111 </v>
    <v>       0.62482587       0.12137439       0.62373266 </v>
    <v>       0.62810447       0.37106368       0.87582903 </v>
    <v>       0.87203043       0.12646612       0.87357857 </v>
    <v>       0.87399070       0.37559746       0.62417133 </v>
    <v>       0.62459328       0.62256774       0.12525494 </v>
    <v>       0.62372661       0.87414634       0.37379244 </v>
    <v>       0.87439948       0.62418095       0.37472318 </v>
    <v>       0.87445435       0.87631807       0.12645098 </v>
    <v>       0.62354796       0.62635003       0.62518852 </v>
    <v>       0.62706290       0.87320107       0.87438180 </v>
    <v>       0.87658977       0.62408304       0.87720656 </v>
    <v>       0.87815984       0.87371302       0.62535428 </v>
    <v>       0.00038515       0.00129886       0.99997982 </v>
    <v>       0.00048413       0.24996245       0.25230746 </v>
    <v>       0.25048965       0.99987234       0.25133220 </v>
    <v>       0.25073884       0.25118725       0.00116533 </v>
    <v>       0.99625768       0.99814741       0.50053744 </v>
    <v>       0.00153302       0.24665489       0.75114310 </v>
    <v>       0.25023276       0.00042227       0.75023487 </v>
    <v>       0.24968809       0.24880378       0.50170667 </v>
    <v>       0.00271174       0.49888213       0.00023083 </v>
    <v>       0.99885314       0.74973836       0.25398399 </v>
    <v>       0.24967092       0.49953396       0.24671947 </v>
    <v>       0.24966672       0.75114610       0.00209296 </v>
    <v>       0.00025440       0.49918754       0.49953443 </v>
    <v>       0.99853384       0.74879805       0.75121330 </v>
    <v>       0.24939687       0.49952178       0.75208776 </v>
    <v>       0.24716396       0.74806239       0.49851369 </v>
    <v>       0.49721957       0.00018110       0.99857885 </v>
    <v>       0.50038738       0.25014692       0.24907505 </v>
    <v>       0.75251470       0.99969446       0.24923650 </v>
    <v>       0.74937281       0.24971884       0.99668167 </v>
    <v>       0.50019399       0.00111453       0.50163582 </v>
    <v>       0.49918790       0.25138815       0.75049740 </v>
    <v>       0.75168949       0.99983064       0.74847011 </v>
    <v>       0.74908343       0.25091700       0.49944042 </v>
    <v>       0.49747954       0.49799797       0.99756975 </v>
    <v>       0.49927089       0.75320421       0.24976660 </v>
    <v>       0.74829911       0.50023653       0.24899130 </v>
    <v>       0.74810164       0.75131076       0.99792882 </v>
    <v>       0.49800837       0.50049113       0.49873072 </v>
    <v>       0.49846478       0.74998146       0.75173223 </v>
    <v>       0.75014215       0.50205540       0.75028862 </v>
    <v>       0.75249364       0.74981344       0.49985647 </v>
   </varray>
  </structure>
  <varray name="forces" >
   <v>      -0.17797433      -0.47012695      -0.89545032 </v>
   <v>      -0.06943511       0.25522761      -0.33607563 </v>
   <v>      -0.13495572      -0.18570254       0.06552058 </v>
   <v>       0.57164638       0.10421529       0.24963092 </v>
   <v>       0.01402075      -0.65489211      -0.47354691 </v>
   <v>      -0.77222405      -0.16248705       0.52094845 </v>
   <v>       0.17681284       0.35161413       0.11830101 </v>
   <v>       0.78628762       0.03866152       0.08433461 </v>
   <v>      -0.54403041       0.29162988      -0.05971110 </v>
   <v>      -0.26379504      -0.10064554      -0.19059372 </v>
   <v>       0.28725485      -0.00719311      -0.65980176 </v>
   <v>      -0.34374528       0.22091539      -0.09752563 </v>
   <v>      -0.01116975      -0.37235095       0.87880261 </v>
   <v>      -0.01688738       0.36057010      -0.04022146 </v>
   <v>      -0.30320957      -0.58111050       0.03540938 </v>
   <v>      -0.24264277       0.14901261       0.28068761 </v>
   <v>       0.32001765      -0.08973080       0.07064368 </v>
   <v>      -0.04449598       0.30842654      -0.73612697 </v>
   <v>       0.31295062      -0.48708837       0.13264812 </v>
   <v>       0.25110371      -0.22287009      -0.37409577 </v>
   <v>       0.11608534       0.79287458       0.40936536 </v>
   <v>      -0.84808203       0.99048108      -0.55504334 </v>
   <v>       0.74885254      -0.43969244       0.19591761 </v>
   <v>       0.25952270      -0.17863145       0.34386195 </v>
   <v>      -0.39555715       0.48291168      -0.32800077 </v>
   <v>       0.54252881       0.35597471       0.32951730 </v>
   <v>       0.02955615      -0.08631965       0.07792096 </v>
   <v>       0.30284606      -0.35853150      -0.37010144 </v>
   <v>       0.15577823      -0.18205665       0.04383743 </v>
   <v>      -0.52540940       0.57365980      -0.13069544 </v>
   <v>      -0.23481472       0.11565477      -0.21103035 </v>
   <v>      -0.66842778       0.03567771       0.10545477 </v>
   <v>      -0.02910735       0.01034472       0.30981848 </v>
   <v>      -0.21728740       0.28953903      -0.03375087 </v>
   <v>       0.07087653       0.20022336       0.09651328 </v>
   <v>      -0.23167562      -0.51173945      -0.14914189 </v>
   <v>       0.74769123       0.71884815      -0.08108341 </v>
   <v>      -0.44431364       0.94703238      -0.27859062 </v>
   <v>      -0.19920533      -0.45804494      -0.24832090 </v>
   <v>      -0.07660652       0.08821964      -0.18694890 </v>
   <v>      -0.30546656      -0.03139740       0.19517744 </v>
   <v>       0.23969760       0.07469045      -0.74370401 </v>
   <v>       0.07169625      -0.11196680       0.88858289 </v>
   <v>       0.02193593      -0.12290338      -0.10443869 </v>
   <v>      -0.09151315      -0.09636985       0.02285506 </v>
   <v>       0.53344284      -0.08636561      -0.11195042 </v>
   <v>       0.02506041       0.65083998      -0.68315993 </v>
   <v>       0.45083384       0.43297212       0.33381291 </v>
   <v>       0.62207060      -0.09448192       0.10079458 </v>
   <v>      -0.08479295       0.00948178       0.11603635 </v>
   <v>      -0.91247424       0.28157708       0.08221160 </v>
   <v>       0.19033040      -0.11275272       1.06658422 </v>
   <v>      -0.13286767      -0.52591873      -0.51935299 </v>
   <v>       0.11570086      -0.46900207      -0.30340819 </v>
   <v>      -0.36619050      -0.21176736       0.06536177 </v>
   <v>      -0.05149737      -0.17071806       0.38432324 </v>
   <v>       0.59336339       0.24433378       0.34848364 </v>
   <v>       0.11066504      -0.92795437       0.13368706 </v>
   <v>       0.08492619      -0.20494062       0.30560060 </v>
   <v>       0.45648661      -0.50009011       0.79321058 </v>
   <v>      -0.02111133       0.02992979       0.43611118 </v>
   <v>       0.28278766       0.21650856      -0.59786800 </v>
   <v>      -0.01291447      -0.38592302      -0.11058805 </v>
   <v>      -0.71894901      -0.02028211      -0.01163976 </v>
  </varray>
  <varray name="stress" >
   <v>       1.78729106      -1.66615097       0.95277432 </v>
   <v>      -1.66615105       1.84661804      -0.88749536 </v>
   <v>       0.95277434      -0.88749536       1.73566791 </v>
  </varray>
  <energy>
   <i name="e_fr_energy">   -481.62467139 </i>
   <i name="e_wo_entrp">   -481.63390849 </i>
   <i name="e_0_energy">   -481.62775042 </i>
  </energy>
  <time name="totalsc">  102.99  103.02</time>
  <eigenvalues>
   <array>
    <dimension dim="1">band</dimension>
    <dimension dim="2">kpoint</dimension>
    <dimension dim="3">spin</dimension>
    <field>eigene</field>
    <field>occ</field>
    <set>
     <set comment="spin 1">
      <set comment="kpoint 1">
       <r>   -7.3361    1.0000 </r>
       <r>   -5.8407    1.0000 </r>
       <r>   -5.7805    1.0000 </r>
       <r>   -5.7519    1.0000 </r>
       <r>   -5.7249    1.0000 </r>
       <r>   -5.7191    1.0000 </r>
       <r>   -5.6908    1.0000 </r>
       <r>   -4.4539    1.0000 </r>
       <r>   -4.4259    1.0000 </r>
       <r>   -4.4014    1.0000 </r>
       <r>   -4.3710    1.0000 </r>
       <r>   -4.3564    1.0000 </r>
       <r>   -4.3488    1.0000 </r>
       <r>   -4.3216    1.0000 </r>
       <r>   -4.3097    1.0000 </r>
       <r>   -4.3005    1.0000 </r>
       <r>   -4.2686    1.0000 </r>
       <r>   -4.2565    1.0000 </r>
       <r>   -4.2278    1.0000 </r>
       <r>   -3.8388    1.0000 </r>
       <r>   -3.8121    1.0000 </r>
       <r>   -3.7965    1.0000 </r>
       <r>   -3.7449    1.0000 </r>
       <r>   -2.4005    1.0000 </r>
       <r>   -2.3650    1.0000 </r>
       <r>   -2.3347    1.0000 </r>
       <r>   -2.2067    1.0000 </r>
       <r>   -2.1621    1.0000 </r>
       <r>   -2.1361    1.0000 </r>
       <r>   -2.1085    1.0000 </r>
       <r>   -2.1029    1.0000 </r>
       <r>   -2.0663    1.0000 </r>
       <r>   -0.5284    1.0000 </r>
       <r>   -0.4871    1.0000 </r>
       <r>   -0.4742    1.0000 </r>
       <r>   -0.4495    1.0000 </r>
       <r>    0.2164    1.0000 </r>
       <r>    0.2384    1.0000 </r>
       <r>    0.2465    1.0000 </r>
       <r>    0.9573    1.0000 </r>
       <r>    0.9695    1.0000 </r>
       <r>    0.9857    1.0000 </r>
       <r>    0.9962    1.0000 </r>
       <r>    1.0102    1.0000 </r>
       <r>    1.0253    1.0000 </r>
       <r>    1.9757    1.0000 </r>
       <r>    2.0244    1.0000 </r>
       <r>    2.0264    1.0000 </r>
       <r>    2.0377    1.0000 </r>
       <r>    2.0565    1.0000 </r>
       <r>    2.0716    1.0000 </r>
       <r>    2.0897    1.0000 </r>
       <r>    2.0951    1.0000 </r>
       <r>    2.1085    1.0000 </r>
       <r>    2.1347    1.0000 </r>
       <r>    2.1516    1.0000 </r>
       <r>    2.1573    1.0000 </r>
       <r>    3.0015    1.0000 </r>
       <r>    3.0130    1.0000 </r>
       <r>    3.0472    1.0000 </r>
       <r>    3.0573    1.0000 </r>
       <r>    3.0970    1.0000 </r>
       <r>    3.0995    1.0000 </r>
       <r>    3.3153    1.0000 </r>
       <r>    3.3250    1.0000 </r>
       <r>    3.3413    1.0000 </r>
       <r>    3.3553    1.0000 </r>
       <r>    3.3584    1.0000 </r>
       <r>    3.3836    1.0000 </r>
       <r>    3.6146    1.0000 </r>
       <r>    3.6454    1.0000 </r>
       <r>    3.6554    1.0000 </r>
       <r>    3.6655    1.0000 </r>
       <r>    3.6688    1.0000 </r>
       <r>    3.6919    1.0000 </r>
       <r>    3.7066    1.0000 </r>
       <r>    3.7093    1.0000 </r>
       <r>    3.7217    1.0000 </r>
       <r>    3.7274    1.0000 </r>
       <r>    3.7356    1.0000 </r>
       <r>    3.7625    1.0000 </r>
       <r>    4.6180    1.0000 </r>
       <r>    4.6307    1.0000 </r>
       <r>    4.6384    1.0000 </r>
       <r>    4.6416    1.0000 </r>
       <r>    4.6712    1.0000 </r>
       <r>    4.6905    1.0000 </r>
       <r>    4.8139    1.0000 </r>
       <r>    4.8290    1.0000 </r>
       <r>    4.8402    1.0000 </r>
       <r>    4.8423    1.0000 </r>
       <r>    4.8526    1.0000 </r>
       <r>    4.8545    1.0000 </r>
       <r>    6.0029    1.0000 </r>
       <r>    6.0107    1.0000 </r>
       <r>    6.0310    1.0000 </r>
       <r>    6.0438    1.0000 </r>
       <r>    6.0592    1.0000 </r>
       <r>    6.0762    1.0000 </r>
       <r>    6.0820    1.0000 </r>
       <r>    6.0977    1.0000 </r>
       <r>    6.1107    1.0000 </r>
       <r>    6.1287    1.0000 </r>
       <r>    6.1334    1.0000 </r>
       <r>    6.1679    1.0000 </r>
       <r>    6.7322    1.0000 </r>
       <r>    6.7481    1.0000 </r>
       <r>    6.7674    1.0000 </r>
       <r>    6.7763    1.0000 </r>
       <r>    6.8031    1.0000 </r>
       <r>    6.8039    1.0000 </r>
       <r>    6.8177    1.0000 </r>
       <r>    6.8285    1.0000 </r>
       <r>    6.8445    1.0000 </r>
       <r>    6.8745    1.0000 </r>
       <r>    6.8845    1.0000 </r>
       <r>    6.8936    1.0000 </r>
       <r>    6.9159    1.0000 </r>
       <r>    6.9242    1.0000 </r>
       <r>    6.9479    1.0000 </r>
       <r>    6.9686    1.0000 </r>
       <r>    6.9941    1.0000 </r>
       <r>    6.9995    1.0000 </r>
       <r>    7.0145    1.0000 </r>
       <r>    7.0270    1.0000 </r>
       <r>    8.0010    0.9584 </r>
       <r>    8.0174    0.9262 </r>
       <r>    8.0263    0.9058 </r>
       <r>    9.3174   -0.0000 </r>
       <r>    9.3717   -0.0000 </r>
       <r>    9.4072   -0.0000 </r>
       <r>   11.9461   -0.0000 </r>
       <r>   12.0068   -0.0000 </r>
       <r>   12.0193   -0.0000 </r>
       <r>   12.0402   -0.0000 </r>
       <r>   12.0510   -0.0000 </r>
       <r>   12.0562   -0.0000 </r>
       <r>   12.2547   -0.0000 </r>
       <r>   12.2792   -0.0000 </r>
       <r>   12.3215   -0.0000 </r>
       <r>   13.1235   -0.0000 </r>
       <r>   13.1621   -0.0000 </r>
       <r>   13.1661   -0.0000 </r>
       <r>   13.1809   -0.0000 </r>
       <r>   13.1925   -0.0000 </r>
       <r>   13.2286   -0.0000 </r>
       <r>   13.3054   -0.0000 </r>
       <r>   13.3284   -0.0000 </r>
       <r>   13.3532   -0.0000 </r>
       <r>   13.3638   -0.0000 </r>
       <r>   13.3787   -0.0000 </r>
       <r>   13.4393   -0.0000 </r>
       <r>   13.4570   -0.0000 </r>
       <r>   13.4873   -0.0000 </r>
       <r>   13.4919   -0.0000 </r>
       <r>   13.4966   -0.0000 </r>
       <r>   13.5137   -0.0000 </r>
       <r>   13.5331   -0.0000 </r>
       <r>   13.5419   -0.0000 </r>
       <r>   13.5501   -0.0000 </r>
       <r>   13.5704   -0.0000 </r>
       <r>   13.5915   -0.0000 </r>
       <r>   14.1088    0.0000 </r>
       <r>   14.1996    0.0000 </r>
       <r>   14.2549    0.0000 </r>
       <r>   14.2788    0.0000 </r>
       <r>   14.3065    0.0000 </r>
       <r>   14.3380    0.0000 </r>
      </set>
      <set comment="kpoint 2">
       <r>   -7.1571    1.0000 </r>
       <r>   -6.6231    1.0000 </r>
       <r>   -5.6285    1.0000 </r>
       <r>   -5.5889    1.0000 </r>
       <r>   -5.5848    1.0000 </r>
       <r>   -5.5506    1.0000 </r>
       <r>   -5.1411    1.0000 </r>
       <r>   -5.1056    1.0000 </r>
       <r>   -5.0968    1.0000 </r>
       <r>   -5.0604    1.0000 </r>
       <r>   -4.5815    1.0000 </r>
       <r>   -4.2834    1.0000 </r>
       <r>   -4.2315    1.0000 </r>
       <r>   -4.2189    1.0000 </r>
       <r>   -4.1871    1.0000 </r>
       <r>   -4.0116    1.0000 </r>
       <r>   -3.9721    1.0000 </r>
       <r>   -3.9592    1.0000 </r>
       <r>   -3.9048    1.0000 </r>
       <r>   -3.4301    1.0000 </r>
       <r>   -3.3940    1.0000 </r>
       <r>   -3.3872    1.0000 </r>
       <r>   -3.3521    1.0000 </r>
       <r>   -3.2296    1.0000 </r>
       <r>   -2.5529    1.0000 </r>
       <r>   -2.5244    1.0000 </r>
       <r>   -2.5121    1.0000 </r>
       <r>   -2.4771    1.0000 </r>
       <r>   -2.3174    1.0000 </r>
       <r>   -2.2940    1.0000 </r>
       <r>   -2.2014    1.0000 </r>
       <r>   -2.1648    1.0000 </r>
       <r>   -0.0717    1.0000 </r>
       <r>   -0.0162    1.0000 </r>
       <r>   -0.0079    1.0000 </r>
       <r>    0.0144    1.0000 </r>
       <r>    0.3610    1.0000 </r>
       <r>    0.3859    1.0000 </r>
       <r>    0.7153    1.0000 </r>
       <r>    0.7457    1.0000 </r>
       <r>    1.0081    1.0000 </r>
       <r>    1.0352    1.0000 </r>
       <r>    1.0540    1.0000 </r>
       <r>    1.0741    1.0000 </r>
       <r>    1.0822    1.0000 </r>
       <r>    1.1160    1.0000 </r>
       <r>    1.1245    1.0000 </r>
       <r>    1.1469    1.0000 </r>
       <r>    1.2442    1.0000 </r>
       <r>    1.3790    1.0000 </r>
       <r>    1.3989    1.0000 </r>
       <r>    1.4207    1.0000 </r>
       <r>    1.4386    1.0000 </r>
       <r>    2.6940    1.0000 </r>
       <r>    2.7034    1.0000 </r>
       <r>    2.7225    1.0000 </r>
       <r>    2.7309    1.0000 </r>
       <r>    2.9253    1.0000 </r>
       <r>    2.9442    1.0000 </r>
       <r>    2.9601    1.0000 </r>
       <r>    2.9700    1.0000 </r>
       <r>    2.9892    1.0000 </r>
       <r>    3.0120    1.0000 </r>
       <r>    3.0205    1.0000 </r>
       <r>    3.0317    1.0000 </r>
       <r>    3.0554    1.0000 </r>
       <r>    3.5229    1.0000 </r>
       <r>    3.5277    1.0000 </r>
       <r>    3.6489    1.0000 </r>
       <r>    3.6554    1.0000 </r>
       <r>    4.0070    1.0000 </r>
       <r>    4.0236    1.0000 </r>
       <r>    4.0427    1.0000 </r>
       <r>    4.0529    1.0000 </r>
       <r>    4.3479    1.0000 </r>
       <r>    4.3604    1.0000 </r>
       <r>    4.3874    1.0000 </r>
       <r>    4.3987    1.0000 </r>
       <r>    4.4290    1.0000 </r>
       <r>    4.4387    1.0000 </r>
       <r>    4.4520    1.0000 </r>
       <r>    4.4756    1.0000 </r>
       <r>    4.6187    1.0000 </r>
       <r>    4.6397    1.0000 </r>
       <r>    4.6679    1.0000 </r>
       <r>    4.6823    1.0000 </r>
       <r>    4.7680    1.0000 </r>
       <r>    4.8144    1.0000 </r>
       <r>    4.8415    1.0000 </r>
       <r>    4.8485    1.0000 </r>
       <r>    4.9830    1.0000 </r>
       <r>    4.9879    1.0000 </r>
       <r>    5.4012    1.0000 </r>
       <r>    5.4087    1.0000 </r>
       <r>    5.5822    1.0000 </r>
       <r>    5.6090    1.0000 </r>
       <r>    5.6294    1.0000 </r>
       <r>    5.6567    1.0000 </r>
       <r>    5.8717    1.0000 </r>
       <r>    5.8783    1.0000 </r>
       <r>    5.9055    1.0000 </r>
       <r>    5.9200    1.0000 </r>
       <r>    6.1946    1.0000 </r>
       <r>    6.2319    1.0000 </r>
       <r>    6.2770    1.0000 </r>
       <r>    6.3013    1.0000 </r>
       <r>    6.3115    1.0000 </r>
       <r>    6.4496    1.0000 </r>
       <r>    6.4763    1.0000 </r>
       <r>    6.4945    1.0000 </r>
       <r>    6.5043    1.0000 </r>
       <r>    6.7955    1.0000 </r>
       <r>    6.8167    1.0000 </r>
       <r>    6.8358    1.0000 </r>
       <r>    6.8540    1.0000 </r>
       <r>    6.8729    1.0000 </r>
       <r>    6.8814    1.0000 </r>
       <r>    6.8949    1.0000 </r>
       <r>    6.9070    1.0000 </r>
       <r>    6.9239    1.0000 </r>
       <r>    6.9376    1.0000 </r>
       <r>    6.9488    1.0000 </r>
       <r>    6.9649    1.0000 </r>
       <r>    6.9874    1.0000 </r>
       <r>    6.9953    1.0000 </r>
       <r>    7.4666    1.0000 </r>
       <r>    7.6714    1.0023 </r>
       <r>    7.6756    1.0025 </r>
       <r>    9.6844   -0.0000 </r>
       <r>   10.1877   -0.0000 </r>
       <r>   10.2312   -0.0000 </r>
       <r>   10.6287   -0.0000 </r>
       <r>   11.9502   -0.0000 </r>
       <r>   11.9958   -0.0000 </r>
       <r>   12.4964   -0.0000 </r>
       <r>   12.6209   -0.0000 </r>
       <r>   12.6566   -0.0000 </r>
       <r>   12.6667   -0.0000 </r>
       <r>   12.6954   -0.0000 </r>
       <r>   12.9404   -0.0000 </r>
       <r>   12.9868   -0.0000 </r>
       <r>   12.9992   -0.0000 </r>
       <r>   13.0109   -0.0000 </r>
       <r>   13.0414   -0.0000 </r>
       <r>   13.0700   -0.0000 </r>
       <r>   13.0812   -0.0000 </r>
       <r>   13.1013   -0.0000 </r>
       <r>   13.1135   -0.0000 </r>
       <r>   13.1508   -0.0000 </r>
       <r>   13.1829   -0.0000 </r>
       <r>   13.5010   -0.0000 </r>
       <r>   13.6059    0.0000 </r>
       <r>   13.6328    0.0000 </r>
       <r>   13.6515    0.0000 </r>
       <r>   13.6723    0.0000 </r>
       <r>   13.6797    0.0000 </r>
       <r>   13.6972    0.0000 </r>
       <r>   13.7037    0.0000 </r>
       <r>   13.7213    0.0000 </r>
       <r>   13.9279    0.0000 </r>
       <r>   13.9750    0.0000 </r>
       <r>   13.9851    0.0000 </r>
       <r>   14.0186    0.0000 </r>
       <r>   14.4804    0.0000 </r>
       <r>   14.8220    0.0000 </r>
       <r>   14.8614    0.0000 </r>
       <r>   14.8897    0.0000 </r>
       <r>   14.9106    0.0000 </r>
      </set>
      <set comment="kpoint 3">
       <r>   -7.1567    1.0000 </r>
       <r>   -6.6233    1.0000 </r>
       <r>   -5.6537    1.0000 </r>
       <r>   -5.6087    1.0000 </r>
       <r>   -5.5586    1.0000 </r>
       <r>   -5.5276    1.0000 </r>
       <r>   -5.1649    1.0000 </r>
       <r>   -5.1235    1.0000 </r>
       <r>   -5.0703    1.0000 </r>
       <r>   -5.0438    1.0000 </r>
       <r>   -4.5875    1.0000 </r>
       <r>   -4.2740    1.0000 </r>
       <r>   -4.2379    1.0000 </r>
       <r>   -4.2232    1.0000 </r>
       <r>   -4.1748    1.0000 </r>
       <r>   -4.0102    1.0000 </r>
       <r>   -3.9763    1.0000 </r>
       <r>   -3.9588    1.0000 </r>
       <r>   -3.9114    1.0000 </r>
       <r>   -3.4535    1.0000 </r>
       <r>   -3.4155    1.0000 </r>
       <r>   -3.3632    1.0000 </r>
       <r>   -3.3389    1.0000 </r>
       <r>   -3.2252    1.0000 </r>
       <r>   -2.5703    1.0000 </r>
       <r>   -2.5464    1.0000 </r>
       <r>   -2.4898    1.0000 </r>
       <r>   -2.4596    1.0000 </r>
       <r>   -2.3044    1.0000 </r>
       <r>   -2.2960    1.0000 </r>
       <r>   -2.1901    1.0000 </r>
       <r>   -2.1855    1.0000 </r>
       <r>   -0.0666    1.0000 </r>
       <r>   -0.0209    1.0000 </r>
       <r>   -0.0123    1.0000 </r>
       <r>    0.0181    1.0000 </r>
       <r>    0.3637    1.0000 </r>
       <r>    0.3853    1.0000 </r>
       <r>    0.7158    1.0000 </r>
       <r>    0.7422    1.0000 </r>
       <r>    1.0160    1.0000 </r>
       <r>    1.0375    1.0000 </r>
       <r>    1.0452    1.0000 </r>
       <r>    1.0640    1.0000 </r>
       <r>    1.0856    1.0000 </r>
       <r>    1.1090    1.0000 </r>
       <r>    1.1282    1.0000 </r>
       <r>    1.1544    1.0000 </r>
       <r>    1.2454    1.0000 </r>
       <r>    1.3807    1.0000 </r>
       <r>    1.3980    1.0000 </r>
       <r>    1.4088    1.0000 </r>
       <r>    1.4491    1.0000 </r>
       <r>    2.6845    1.0000 </r>
       <r>    2.7010    1.0000 </r>
       <r>    2.7202    1.0000 </r>
       <r>    2.7432    1.0000 </r>
       <r>    2.9306    1.0000 </r>
       <r>    2.9470    1.0000 </r>
       <r>    2.9601    1.0000 </r>
       <r>    2.9664    1.0000 </r>
       <r>    2.9938    1.0000 </r>
       <r>    3.0041    1.0000 </r>
       <r>    3.0200    1.0000 </r>
       <r>    3.0301    1.0000 </r>
       <r>    3.0627    1.0000 </r>
       <r>    3.5269    1.0000 </r>
       <r>    3.5300    1.0000 </r>
       <r>    3.6481    1.0000 </r>
       <r>    3.6503    1.0000 </r>
       <r>    4.0105    1.0000 </r>
       <r>    4.0200    1.0000 </r>
       <r>    4.0302    1.0000 </r>
       <r>    4.0647    1.0000 </r>
       <r>    4.3547    1.0000 </r>
       <r>    4.3645    1.0000 </r>
       <r>    4.3749    1.0000 </r>
       <r>    4.3903    1.0000 </r>
       <r>    4.4113    1.0000 </r>
       <r>    4.4407    1.0000 </r>
       <r>    4.4578    1.0000 </r>
       <r>    4.4835    1.0000 </r>
       <r>    4.6194    1.0000 </r>
       <r>    4.6384    1.0000 </r>
       <r>    4.6773    1.0000 </r>
       <r>    4.6858    1.0000 </r>
       <r>    4.7678    1.0000 </r>
       <r>    4.8102    1.0000 </r>
       <r>    4.8298    1.0000 </r>
       <r>    4.8671    1.0000 </r>
       <r>    4.9817    1.0000 </r>
       <r>    4.9856    1.0000 </r>
       <r>    5.4027    1.0000 </r>
       <r>    5.4095    1.0000 </r>
       <r>    5.5840    1.0000 </r>
       <r>    5.6000    1.0000 </r>
       <r>    5.6370    1.0000 </r>
       <r>    5.6546    1.0000 </r>
       <r>    5.8587    1.0000 </r>
       <r>    5.8809    1.0000 </r>
       <r>    5.9038    1.0000 </r>
       <r>    5.9297    1.0000 </r>
       <r>    6.1766    1.0000 </r>
       <r>    6.2377    1.0000 </r>
       <r>    6.2692    1.0000 </r>
       <r>    6.2966    1.0000 </r>
       <r>    6.3280    1.0000 </r>
       <r>    6.4490    1.0000 </r>
       <r>    6.4661    1.0000 </r>
       <r>    6.4907    1.0000 </r>
       <r>    6.5260    1.0000 </r>
       <r>    6.7939    1.0000 </r>
       <r>    6.8296    1.0000 </r>
       <r>    6.8408    1.0000 </r>
       <r>    6.8549    1.0000 </r>
       <r>    6.8645    1.0000 </r>
       <r>    6.8822    1.0000 </r>
       <r>    6.8973    1.0000 </r>
       <r>    6.9058    1.0000 </r>
       <r>    6.9235    1.0000 </r>
       <r>    6.9349    1.0000 </r>
       <r>    6.9501    1.0000 </r>
       <r>    6.9658    1.0000 </r>
       <r>    6.9705    1.0000 </r>
       <r>    7.0038    1.0000 </r>
       <r>    7.4646    1.0000 </r>
       <r>    7.6674    1.0021 </r>
       <r>    7.6809    1.0027 </r>
       <r>    9.6834   -0.0000 </r>
       <r>   10.2043   -0.0000 </r>
       <r>   10.2150   -0.0000 </r>
       <r>   10.6294   -0.0000 </r>
       <r>   11.9649   -0.0000 </r>
       <r>   11.9824   -0.0000 </r>
       <r>   12.4972   -0.0000 </r>
       <r>   12.6005   -0.0000 </r>
       <r>   12.6626   -0.0000 </r>
       <r>   12.6767   -0.0000 </r>
       <r>   12.7007   -0.0000 </r>
       <r>   12.9186   -0.0000 </r>
       <r>   12.9830   -0.0000 </r>
       <r>   12.9911   -0.0000 </r>
       <r>   13.0156   -0.0000 </r>
       <r>   13.0515   -0.0000 </r>
       <r>   13.0765   -0.0000 </r>
       <r>   13.0879   -0.0000 </r>
       <r>   13.0996   -0.0000 </r>
       <r>   13.1143   -0.0000 </r>
       <r>   13.1409   -0.0000 </r>
       <r>   13.2063   -0.0000 </r>
       <r>   13.4889   -0.0000 </r>
       <r>   13.5918   -0.0000 </r>
       <r>   13.6321    0.0000 </r>
       <r>   13.6570    0.0000 </r>
       <r>   13.6675    0.0000 </r>
       <r>   13.6931    0.0000 </r>
       <r>   13.7032    0.0000 </r>
       <r>   13.7075    0.0000 </r>
       <r>   13.7150    0.0000 </r>
       <r>   13.9273    0.0000 </r>
       <r>   13.9735    0.0000 </r>
       <r>   13.9918    0.0000 </r>
       <r>   14.0177    0.0000 </r>
       <r>   14.4764    0.0000 </r>
       <r>   14.8013    0.0000 </r>
       <r>   14.8314    0.0000 </r>
       <r>   14.8604    0.0000 </r>
       <r>   14.9008    0.0000 </r>
      </set>
      <set comment="kpoint 4">
       <r>   -7.1571    1.0000 </r>
       <r>   -6.6228    1.0000 </r>
       <r>   -5.6422    1.0000 </r>
       <r>   -5.5952    1.0000 </r>
       <r>   -5.5580    1.0000 </r>
       <r>   -5.5565    1.0000 </r>
       <r>   -5.1535    1.0000 </r>
       <r>   -5.1094    1.0000 </r>
       <r>   -5.0728    1.0000 </r>
       <r>   -5.0674    1.0000 </r>
       <r>   -4.5845    1.0000 </r>
       <r>   -4.2697    1.0000 </r>
       <r>   -4.2550    1.0000 </r>
       <r>   -4.2214    1.0000 </r>
       <r>   -4.1748    1.0000 </r>
       <r>   -3.9993    1.0000 </r>
       <r>   -3.9745    1.0000 </r>
       <r>   -3.9596    1.0000 </r>
       <r>   -3.9128    1.0000 </r>
       <r>   -3.4489    1.0000 </r>
       <r>   -3.3918    1.0000 </r>
       <r>   -3.3661    1.0000 </r>
       <r>   -3.3581    1.0000 </r>
       <r>   -3.2267    1.0000 </r>
       <r>   -2.5713    1.0000 </r>
       <r>   -2.5120    1.0000 </r>
       <r>   -2.4953    1.0000 </r>
       <r>   -2.4822    1.0000 </r>
       <r>   -2.3498    1.0000 </r>
       <r>   -2.2738    1.0000 </r>
       <r>   -2.2014    1.0000 </r>
       <r>   -2.1602    1.0000 </r>
       <r>   -0.0633    1.0000 </r>
       <r>   -0.0249    1.0000 </r>
       <r>   -0.0131    1.0000 </r>
       <r>    0.0190    1.0000 </r>
       <r>    0.3681    1.0000 </r>
       <r>    0.3793    1.0000 </r>
       <r>    0.7271    1.0000 </r>
       <r>    0.7324    1.0000 </r>
       <r>    1.0205    1.0000 </r>
       <r>    1.0382    1.0000 </r>
       <r>    1.0554    1.0000 </r>
       <r>    1.0615    1.0000 </r>
       <r>    1.0838    1.0000 </r>
       <r>    1.1060    1.0000 </r>
       <r>    1.1244    1.0000 </r>
       <r>    1.1505    1.0000 </r>
       <r>    1.2461    1.0000 </r>
       <r>    1.3924    1.0000 </r>
       <r>    1.4062    1.0000 </r>
       <r>    1.4118    1.0000 </r>
       <r>    1.4284    1.0000 </r>
       <r>    2.6969    1.0000 </r>
       <r>    2.7049    1.0000 </r>
       <r>    2.7093    1.0000 </r>
       <r>    2.7326    1.0000 </r>
       <r>    2.9255    1.0000 </r>
       <r>    2.9524    1.0000 </r>
       <r>    2.9603    1.0000 </r>
       <r>    2.9723    1.0000 </r>
       <r>    2.9938    1.0000 </r>
       <r>    3.0107    1.0000 </r>
       <r>    3.0175    1.0000 </r>
       <r>    3.0345    1.0000 </r>
       <r>    3.0478    1.0000 </r>
       <r>    3.5258    1.0000 </r>
       <r>    3.5276    1.0000 </r>
       <r>    3.6473    1.0000 </r>
       <r>    3.6540    1.0000 </r>
       <r>    4.0004    1.0000 </r>
       <r>    4.0286    1.0000 </r>
       <r>    4.0350    1.0000 </r>
       <r>    4.0563    1.0000 </r>
       <r>    4.3605    1.0000 </r>
       <r>    4.3624    1.0000 </r>
       <r>    4.3860    1.0000 </r>
       <r>    4.3897    1.0000 </r>
       <r>    4.4227    1.0000 </r>
       <r>    4.4420    1.0000 </r>
       <r>    4.4542    1.0000 </r>
       <r>    4.4711    1.0000 </r>
       <r>    4.6250    1.0000 </r>
       <r>    4.6442    1.0000 </r>
       <r>    4.6641    1.0000 </r>
       <r>    4.6829    1.0000 </r>
       <r>    4.7823    1.0000 </r>
       <r>    4.8040    1.0000 </r>
       <r>    4.8254    1.0000 </r>
       <r>    4.8603    1.0000 </r>
       <r>    4.9803    1.0000 </r>
       <r>    4.9894    1.0000 </r>
       <r>    5.3988    1.0000 </r>
       <r>    5.4116    1.0000 </r>
       <r>    5.5923    1.0000 </r>
       <r>    5.6078    1.0000 </r>
       <r>    5.6251    1.0000 </r>
       <r>    5.6551    1.0000 </r>
       <r>    5.8683    1.0000 </r>
       <r>    5.8820    1.0000 </r>
       <r>    5.9062    1.0000 </r>
       <r>    5.9180    1.0000 </r>
       <r>    6.1817    1.0000 </r>
       <r>    6.2581    1.0000 </r>
       <r>    6.2732    1.0000 </r>
       <r>    6.2892    1.0000 </r>
       <r>    6.3215    1.0000 </r>
       <r>    6.4497    1.0000 </r>
       <r>    6.4813    1.0000 </r>
       <r>    6.4903    1.0000 </r>
       <r>    6.5072    1.0000 </r>
       <r>    6.7785    1.0000 </r>
       <r>    6.7935    1.0000 </r>
       <r>    6.8385    1.0000 </r>
       <r>    6.8526    1.0000 </r>
       <r>    6.8731    1.0000 </r>
       <r>    6.8888    1.0000 </r>
       <r>    6.9000    1.0000 </r>
       <r>    6.9103    1.0000 </r>
       <r>    6.9237    1.0000 </r>
       <r>    6.9345    1.0000 </r>
       <r>    6.9495    1.0000 </r>
       <r>    6.9700    1.0000 </r>
       <r>    6.9861    1.0000 </r>
       <r>    7.0039    1.0000 </r>
       <r>    7.4645    1.0000 </r>
       <r>    7.6651    1.0020 </r>
       <r>    7.6844    1.0029 </r>
       <r>    9.6856   -0.0000 </r>
       <r>   10.1771   -0.0000 </r>
       <r>   10.2386   -0.0000 </r>
       <r>   10.6311   -0.0000 </r>
       <r>   11.9511   -0.0000 </r>
       <r>   12.0030   -0.0000 </r>
       <r>   12.4937   -0.0000 </r>
       <r>   12.6171   -0.0000 </r>
       <r>   12.6509   -0.0000 </r>
       <r>   12.6573   -0.0000 </r>
       <r>   12.6935   -0.0000 </r>
       <r>   12.9355   -0.0000 </r>
       <r>   12.9786   -0.0000 </r>
       <r>   12.9909   -0.0000 </r>
       <r>   13.0111   -0.0000 </r>
       <r>   13.0574   -0.0000 </r>
       <r>   13.0804   -0.0000 </r>
       <r>   13.0914   -0.0000 </r>
       <r>   13.1042   -0.0000 </r>
       <r>   13.1120   -0.0000 </r>
       <r>   13.1435   -0.0000 </r>
       <r>   13.1866   -0.0000 </r>
       <r>   13.4983   -0.0000 </r>
       <r>   13.5999    0.0000 </r>
       <r>   13.6363    0.0000 </r>
       <r>   13.6505    0.0000 </r>
       <r>   13.6677    0.0000 </r>
       <r>   13.6930    0.0000 </r>
       <r>   13.6992    0.0000 </r>
       <r>   13.7049    0.0000 </r>
       <r>   13.7180    0.0000 </r>
       <r>   13.9479    0.0000 </r>
       <r>   13.9717    0.0000 </r>
       <r>   13.9767    0.0000 </r>
       <r>   14.0163    0.0000 </r>
       <r>   14.4794    0.0000 </r>
       <r>   14.7995    0.0000 </r>
       <r>   14.8350    0.0000 </r>
       <r>   14.8813    0.0000 </r>
       <r>   14.9095    0.0000 </r>
      </set>
      <set comment="kpoint 5">
       <r>   -6.9793    1.0000 </r>
       <r>   -6.4633    1.0000 </r>
       <r>   -6.4350    1.0000 </r>
       <r>   -5.9338    1.0000 </r>
       <r>   -5.4515    1.0000 </r>
       <r>   -5.4020    1.0000 </r>
       <r>   -4.9895    1.0000 </r>
       <r>   -4.9784    1.0000 </r>
       <r>   -4.9513    1.0000 </r>
       <r>   -4.8972    1.0000 </r>
       <r>   -4.5677    1.0000 </r>
       <r>   -4.5187    1.0000 </r>
       <r>   -4.4418    1.0000 </r>
       <r>   -4.4194    1.0000 </r>
       <r>   -4.0365    1.0000 </r>
       <r>   -3.9927    1.0000 </r>
       <r>   -3.5308    1.0000 </r>
       <r>   -3.4981    1.0000 </r>
       <r>   -3.4234    1.0000 </r>
       <r>   -3.4031    1.0000 </r>
       <r>   -3.3834    1.0000 </r>
       <r>   -3.3201    1.0000 </r>
       <r>   -3.1540    1.0000 </r>
       <r>   -3.0995    1.0000 </r>
       <r>   -2.8652    1.0000 </r>
       <r>   -2.8287    1.0000 </r>
       <r>   -2.7720    1.0000 </r>
       <r>   -2.7167    1.0000 </r>
       <r>   -2.6871    1.0000 </r>
       <r>   -2.3363    1.0000 </r>
       <r>   -2.2979    1.0000 </r>
       <r>   -2.2786    1.0000 </r>
       <r>   -0.1924    1.0000 </r>
       <r>   -0.1471    1.0000 </r>
       <r>    0.4845    1.0000 </r>
       <r>    0.5371    1.0000 </r>
       <r>    0.5495    1.0000 </r>
       <r>    0.5726    1.0000 </r>
       <r>    0.6024    1.0000 </r>
       <r>    0.6327    1.0000 </r>
       <r>    0.6759    1.0000 </r>
       <r>    0.7761    1.0000 </r>
       <r>    0.8014    1.0000 </r>
       <r>    0.8353    1.0000 </r>
       <r>    0.8583    1.0000 </r>
       <r>    0.9971    1.0000 </r>
       <r>    1.2164    1.0000 </r>
       <r>    1.2283    1.0000 </r>
       <r>    1.2478    1.0000 </r>
       <r>    1.2771    1.0000 </r>
       <r>    2.0067    1.0000 </r>
       <r>    2.0291    1.0000 </r>
       <r>    2.0426    1.0000 </r>
       <r>    2.0726    1.0000 </r>
       <r>    2.0814    1.0000 </r>
       <r>    2.1256    1.0000 </r>
       <r>    2.4134    1.0000 </r>
       <r>    2.5710    1.0000 </r>
       <r>    2.5812    1.0000 </r>
       <r>    2.6960    1.0000 </r>
       <r>    2.7050    1.0000 </r>
       <r>    3.2119    1.0000 </r>
       <r>    3.2506    1.0000 </r>
       <r>    3.2952    1.0000 </r>
       <r>    3.3068    1.0000 </r>
       <r>    3.3477    1.0000 </r>
       <r>    3.5110    1.0000 </r>
       <r>    3.5342    1.0000 </r>
       <r>    3.9137    1.0000 </r>
       <r>    3.9283    1.0000 </r>
       <r>    4.0129    1.0000 </r>
       <r>    4.0310    1.0000 </r>
       <r>    4.0598    1.0000 </r>
       <r>    4.1029    1.0000 </r>
       <r>    4.1184    1.0000 </r>
       <r>    4.2898    1.0000 </r>
       <r>    4.3176    1.0000 </r>
       <r>    4.4806    1.0000 </r>
       <r>    4.4889    1.0000 </r>
       <r>    4.6582    1.0000 </r>
       <r>    4.6864    1.0000 </r>
       <r>    4.8686    1.0000 </r>
       <r>    4.8952    1.0000 </r>
       <r>    4.9091    1.0000 </r>
       <r>    4.9298    1.0000 </r>
       <r>    4.9378    1.0000 </r>
       <r>    4.9618    1.0000 </r>
       <r>    5.0900    1.0000 </r>
       <r>    5.2666    1.0000 </r>
       <r>    5.3063    1.0000 </r>
       <r>    5.3983    1.0000 </r>
       <r>    5.4214    1.0000 </r>
       <r>    5.4343    1.0000 </r>
       <r>    5.5001    1.0000 </r>
       <r>    5.5538    1.0000 </r>
       <r>    5.5656    1.0000 </r>
       <r>    5.5881    1.0000 </r>
       <r>    5.6070    1.0000 </r>
       <r>    5.6296    1.0000 </r>
       <r>    5.6380    1.0000 </r>
       <r>    5.6647    1.0000 </r>
       <r>    5.8349    1.0000 </r>
       <r>    5.9925    1.0000 </r>
       <r>    6.0267    1.0000 </r>
       <r>    6.0371    1.0000 </r>
       <r>    6.0495    1.0000 </r>
       <r>    6.1972    1.0000 </r>
       <r>    6.2114    1.0000 </r>
       <r>    6.2388    1.0000 </r>
       <r>    6.2952    1.0000 </r>
       <r>    6.4062    1.0000 </r>
       <r>    6.4294    1.0000 </r>
       <r>    6.4623    1.0000 </r>
       <r>    6.5082    1.0000 </r>
       <r>    6.5584    1.0000 </r>
       <r>    6.6523    1.0000 </r>
       <r>    6.6703    1.0000 </r>
       <r>    6.6914    1.0000 </r>
       <r>    6.7321    1.0000 </r>
       <r>    6.8438    1.0000 </r>
       <r>    6.8705    1.0000 </r>
       <r>    6.8845    1.0000 </r>
       <r>    6.9063    1.0000 </r>
       <r>    7.3038    1.0000 </r>
       <r>    7.4947    1.0000 </r>
       <r>    7.5000    1.0000 </r>
       <r>    7.6194    1.0007 </r>
       <r>    7.9520    1.0179 </r>
       <r>   10.4196   -0.0000 </r>
       <r>   10.4655   -0.0000 </r>
       <r>   10.5306   -0.0000 </r>
       <r>   11.3260   -0.0000 </r>
       <r>   11.3642   -0.0000 </r>
       <r>   11.6546   -0.0000 </r>
       <r>   11.6804   -0.0000 </r>
       <r>   11.8031   -0.0000 </r>
       <r>   12.1879   -0.0000 </r>
       <r>   12.2125   -0.0000 </r>
       <r>   12.8185   -0.0000 </r>
       <r>   12.8502   -0.0000 </r>
       <r>   12.8832   -0.0000 </r>
       <r>   12.9167   -0.0000 </r>
       <r>   13.0614   -0.0000 </r>
       <r>   13.1050   -0.0000 </r>
       <r>   13.1229   -0.0000 </r>
       <r>   13.1648   -0.0000 </r>
       <r>   13.1858   -0.0000 </r>
       <r>   13.2185   -0.0000 </r>
       <r>   13.2895   -0.0000 </r>
       <r>   13.3089   -0.0000 </r>
       <r>   13.5330   -0.0000 </r>
       <r>   13.5785   -0.0000 </r>
       <r>   13.5847   -0.0000 </r>
       <r>   13.6152    0.0000 </r>
       <r>   13.7217    0.0000 </r>
       <r>   13.7569    0.0000 </r>
       <r>   13.7909    0.0000 </r>
       <r>   13.7999    0.0000 </r>
       <r>   13.8638    0.0000 </r>
       <r>   13.9441    0.0000 </r>
       <r>   13.9934    0.0000 </r>
       <r>   14.0665    0.0000 </r>
       <r>   14.1101    0.0000 </r>
       <r>   14.6732    0.0000 </r>
       <r>   14.7479    0.0000 </r>
       <r>   14.7620    0.0000 </r>
       <r>   14.9412    0.0000 </r>
       <r>   15.0224    0.0000 </r>
      </set>
      <set comment="kpoint 6">
       <r>   -6.9790    1.0000 </r>
       <r>   -6.4680    1.0000 </r>
       <r>   -6.4304    1.0000 </r>
       <r>   -5.9347    1.0000 </r>
       <r>   -5.4512    1.0000 </r>
       <r>   -5.4009    1.0000 </r>
       <r>   -4.9976    1.0000 </r>
       <r>   -4.9669    1.0000 </r>
       <r>   -4.9408    1.0000 </r>
       <r>   -4.9101    1.0000 </r>
       <r>   -4.5712    1.0000 </r>
       <r>   -4.5246    1.0000 </r>
       <r>   -4.4418    1.0000 </r>
       <r>   -4.4124    1.0000 </r>
       <r>   -4.0394    1.0000 </r>
       <r>   -3.9867    1.0000 </r>
       <r>   -3.5416    1.0000 </r>
       <r>   -3.4881    1.0000 </r>
       <r>   -3.4289    1.0000 </r>
       <r>   -3.3897    1.0000 </r>
       <r>   -3.3797    1.0000 </r>
       <r>   -3.3387    1.0000 </r>
       <r>   -3.1461    1.0000 </r>
       <r>   -3.1001    1.0000 </r>
       <r>   -2.8674    1.0000 </r>
       <r>   -2.8318    1.0000 </r>
       <r>   -2.7615    1.0000 </r>
       <r>   -2.7221    1.0000 </r>
       <r>   -2.6898    1.0000 </r>
       <r>   -2.3329    1.0000 </r>
       <r>   -2.3093    1.0000 </r>
       <r>   -2.2698    1.0000 </r>
       <r>   -0.1861    1.0000 </r>
       <r>   -0.1491    1.0000 </r>
       <r>    0.4910    1.0000 </r>
       <r>    0.5265    1.0000 </r>
       <r>    0.5526    1.0000 </r>
       <r>    0.5748    1.0000 </r>
       <r>    0.5959    1.0000 </r>
       <r>    0.6461    1.0000 </r>
       <r>    0.6678    1.0000 </r>
       <r>    0.7836    1.0000 </r>
       <r>    0.8011    1.0000 </r>
       <r>    0.8276    1.0000 </r>
       <r>    0.8573    1.0000 </r>
       <r>    0.9913    1.0000 </r>
       <r>    1.2094    1.0000 </r>
       <r>    1.2279    1.0000 </r>
       <r>    1.2392    1.0000 </r>
       <r>    1.2881    1.0000 </r>
       <r>    1.9842    1.0000 </r>
       <r>    2.0446    1.0000 </r>
       <r>    2.0549    1.0000 </r>
       <r>    2.0795    1.0000 </r>
       <r>    2.0978    1.0000 </r>
       <r>    2.1114    1.0000 </r>
       <r>    2.4107    1.0000 </r>
       <r>    2.5717    1.0000 </r>
       <r>    2.5899    1.0000 </r>
       <r>    2.6942    1.0000 </r>
       <r>    2.7020    1.0000 </r>
       <r>    3.2129    1.0000 </r>
       <r>    3.2450    1.0000 </r>
       <r>    3.2836    1.0000 </r>
       <r>    3.3104    1.0000 </r>
       <r>    3.3474    1.0000 </r>
       <r>    3.5069    1.0000 </r>
       <r>    3.5352    1.0000 </r>
       <r>    3.9048    1.0000 </r>
       <r>    3.9372    1.0000 </r>
       <r>    4.0350    1.0000 </r>
       <r>    4.0404    1.0000 </r>
       <r>    4.0555    1.0000 </r>
       <r>    4.0882    1.0000 </r>
       <r>    4.1138    1.0000 </r>
       <r>    4.3054    1.0000 </r>
       <r>    4.3086    1.0000 </r>
[...]
      </set>
     </set>
    </set>
   </array>
  </eigenvalues>
  <separator name="orbital magnetization" >
   <v name="MAGDIPOLOUT">      0.00000000      0.00000000      0.00000000</v>
  </separator>
  <dos>
   <i name="efermi">      8.14020497 </i>
   <total>
    <array>
     <dimension dim="1">gridpoints</dimension>
     <dimension dim="2">spin</dimension>
     <field>energy</field>
     <field>total</field>
     <field>integrated</field>
     <set>
      <set comment="spin 1">
       <r>    -9.3361     0.0000     0.0000 </r>
       <r>    -9.2466     0.0000     0.0000 </r>
       <r>    -9.1571     0.0000     0.0000 </r>
       <r>    -9.0676     0.0000     0.0000 </r>
       <r>    -8.9781    -0.0000    -0.0000 </r>
       <r>    -8.8886    -0.0000    -0.0000 </r>
       <r>    -8.7992    -0.0000    -0.0000 </r>
       <r>    -8.7097    -0.0000    -0.0000 </r>
       <r>    -8.6202    -0.0000    -0.0000 </r>
       <r>    -8.5307    -0.0000    -0.0000 </r>
       <r>    -8.4412    -0.0000    -0.0000 </r>
       <r>    -8.3517    -0.0000    -0.0000 </r>
       <r>    -8.2622    -0.0000    -0.0000 </r>
       <r>    -8.1727    -0.0000    -0.0000 </r>
       <r>    -8.0832    -0.0000    -0.0000 </r>
       <r>    -7.9937    -0.0000    -0.0000 </r>
       <r>    -7.9042    -0.0002    -0.0000 </r>
       <r>    -7.8148    -0.0014    -0.0001 </r>
       <r>    -7.7253    -0.0073    -0.0008 </r>
       <r>    -7.6358    -0.0233    -0.0029 </r>
       <r>    -7.5463    -0.0416    -0.0066 </r>
       <r>    -7.4568    -0.0176    -0.0082 </r>
       <r>    -7.3673     0.1526     0.0055 </r>
       <r>    -7.2778     0.6446     0.0632 </r>
       <r>    -7.1883     1.5752     0.2041 </r>
       <r>    -7.0988     2.8309     0.4575 </r>
       <r>    -7.0093     4.0411     0.8191 </r>
       <r>    -6.9198     4.5584     1.2271 </r>
       <r>    -6.8303     4.0568     1.5901 </r>
       <r>    -6.7409     3.0940     1.8670 </r>
       <r>    -6.6514     2.7572     2.1137 </r>
       <r>    -6.5619     4.1818     2.4880 </r>
       <r>    -6.4724     7.2743     3.1390 </r>
       <r>    -6.3829     9.9954     4.0335 </r>
       <r>    -6.2934    10.2471     4.9505 </r>
       <r>    -6.2039     7.5638     5.6274 </r>
       <r>    -6.1144     3.6811     5.9568 </r>
       <r>    -6.0249     1.9085     6.1276 </r>
       <r>    -5.9354     3.7158     6.4601 </r>
       <r>    -5.8459     7.4059     7.1229 </r>
       <r>    -5.7565    10.5022     8.0628 </r>
       <r>    -5.6670    11.6387     9.1043 </r>
       <r>    -5.5775    11.4166    10.1260 </r>
       <r>    -5.4880    11.0659    11.1163 </r>
       <r>    -5.3985    10.0808    12.0185 </r>
       <r>    -5.3090     7.7287    12.7101 </r>
       <r>    -5.2195     6.1007    13.2561 </r>
       <r>    -5.1300     8.3825    14.0062 </r>
       <r>    -5.0405    13.9620    15.2557 </r>
       <r>    -4.9510    17.2380    16.7984 </r>
       <r>    -4.8615    13.4809    18.0048 </r>
       <r>    -4.7720     5.8876    18.5317 </r>
       <r>    -4.6826     2.4777    18.7534 </r>
       <r>    -4.5931     6.2333    19.3112 </r>
       <r>    -4.5036    12.9645    20.4714 </r>
       <r>    -4.4141    17.9190    22.0750 </r>
       <r>    -4.3246    19.6161    23.8305 </r>
       <r>    -4.2351    17.7022    25.4147 </r>
       <r>    -4.1456    14.5078    26.7130 </r>
       <r>    -4.0561    16.3112    28.1727 </r>
       <r>    -3.9666    23.0046    30.2315 </r>
       <r>    -3.8771    24.7372    32.4452 </r>
       <r>    -3.7876    17.8540    34.0430 </r>
       <r>    -3.6981    10.7599    35.0059 </r>
       <r>    -3.6087    10.4136    35.9378 </r>
       <r>    -3.5192    16.0503    37.3742 </r>
       <r>    -3.4297    22.7798    39.4128 </r>
       <r>    -3.3402    24.0173    41.5621 </r>
       <r>    -3.2507    18.7460    43.2397 </r>
       <r>    -3.1612    14.5957    44.5459 </r>
       <r>    -3.0717    16.2073    45.9963 </r>
       <r>    -2.9822    20.9728    47.8732 </r>
       <r>    -2.8927    26.7524    50.2673 </r>
       <r>    -2.8032    30.6412    53.0094 </r>
       <r>    -2.7137    27.2503    55.4481 </r>
       <r>    -2.6243    17.6372    57.0265 </r>
       <r>    -2.5348    10.0820    57.9287 </r>
       <r>    -2.4453     9.6105    58.7888 </r>
       <r>    -2.3558    14.2676    60.0656 </r>
       <r>    -2.2663    17.9676    61.6736 </r>
       <r>    -2.1768    15.5634    63.0664 </r>
       <r>    -2.0873     8.6343    63.8390 </r>
       <r>    -1.9978     2.6293    64.0744 </r>
       <r>    -1.9083    -0.0365    64.0711 </r>
       <r>    -1.8188    -0.4638    64.0296 </r>
       <r>    -1.7293    -0.2441    64.0077 </r>
       <r>    -1.6398    -0.0713    64.0014 </r>
       <r>    -1.5504    -0.0133    64.0002 </r>
       <r>    -1.4609    -0.0017    64.0000 </r>
       <r>    -1.3714    -0.0001    64.0000 </r>
       <r>    -1.2819    -0.0000    64.0000 </r>
       <r>    -1.1924    -0.0000    64.0000 </r>
       <r>    -1.1029    -0.0002    64.0000 </r>
       <r>    -1.0134    -0.0022    63.9998 </r>
       <r>    -0.9239    -0.0126    63.9987 </r>
       <r>    -0.8344    -0.0414    63.9950 </r>
       <r>    -0.7449    -0.0536    63.9902 </r>
       <r>    -0.6554     0.0992    63.9990 </r>
       <r>    -0.5660     0.4853    64.0425 </r>
       <r>    -0.4765     0.7297    64.1078 </r>
       <r>    -0.3870     0.7238    64.1725 </r>
       <r>    -0.2975     1.9381    64.3460 </r>
       <r>    -0.2080     5.7409    64.8597 </r>
       <r>    -0.1185    10.0305    65.7574 </r>
       <r>    -0.0290    10.9268    66.7352 </r>
       <r>     0.0605     8.0446    67.4552 </r>
       <r>     0.1500     5.6737    67.9629 </r>
       <r>     0.2395     7.8289    68.6635 </r>
       <r>     0.3290    13.5291    69.8743 </r>
       <r>     0.4185    19.4189    71.6121 </r>
       <r>     0.5079    23.6268    73.7265 </r>
       <r>     0.5974    25.3225    75.9926 </r>
       <r>     0.6869    26.1013    78.3285 </r>
       <r>     0.7764    29.3343    80.9536 </r>
       <r>     0.8659    32.6364    83.8743 </r>
       <r>     0.9554    30.7997    86.6306 </r>
       <r>     1.0449    27.7904    89.1176 </r>
       <r>     1.1344    31.3332    91.9217 </r>
       <r>     1.2239    38.8367    95.3972 </r>
       <r>     1.3134    39.4492    98.9276 </r>
       <r>     1.4029    28.5062   101.4786 </r>
       <r>     1.4923    13.2426   102.6637 </r>
       <r>     1.5818     2.6703   102.9027 </r>
       <r>     1.6713    -1.1966   102.7956 </r>
       <r>     1.7608    -0.9796   102.7080 </r>
       <r>     1.8503     1.9392   102.8815 </r>
       <r>     1.9398     9.2806   103.7120 </r>
       <r>     2.0293    20.4650   105.5435 </r>
       <r>     2.1188    27.3983   107.9954 </r>
       <r>     2.2083    23.2206   110.0734 </r>
       <r>     2.2978    12.7833   111.2174 </r>
       <r>     2.3873     5.6274   111.7210 </r>
       <r>     2.4768     5.4644   112.2100 </r>
       <r>     2.5662    10.7076   113.1683 </r>
       <r>     2.6557    16.7480   114.6671 </r>
       <r>     2.7452    17.5457   116.2373 </r>
       <r>     2.8347    13.5348   117.4485 </r>
       <r>     2.9242    12.6053   118.5766 </r>
       <r>     3.0137    17.0154   120.0993 </r>
       <r>     3.1032    22.0315   122.0709 </r>
       <r>     3.1927    27.4053   124.5235 </r>
       <r>     3.2822    33.2987   127.5034 </r>
       <r>     3.3717    33.7208   130.5211 </r>
       <r>     3.4612    28.6914   133.0888 </r>
       <r>     3.5507    25.4788   135.3689 </r>
       <r>     3.6401    23.6370   137.4842 </r>
       <r>     3.7296    18.2266   139.1153 </r>
       <r>     3.8191    12.1572   140.2033 </r>
       <r>     3.9086    13.3480   141.3978 </r>
       <r>     3.9981    21.6590   143.3361 </r>
       <r>     4.0876    26.0669   145.6689 </r>
       <r>     4.1771    21.2064   147.5667 </r>
       <r>     4.2666    17.5479   149.1371 </r>
       <r>     4.3561    23.6851   151.2567 </r>
       <r>     4.4456    32.8040   154.1924 </r>
       <r>     4.5351    36.8388   157.4891 </r>
       <r>     4.6245    36.3083   160.7384 </r>
       <r>     4.7140    34.4067   163.8175 </r>
       <r>     4.8035    34.5469   166.9091 </r>
       <r>     4.8930    36.4282   170.1692 </r>
       <r>     4.9825    34.8657   173.2893 </r>
       <r>     5.0720    30.7187   176.0384 </r>
       <r>     5.1615    29.7744   178.7029 </r>
       <r>     5.2510    30.9520   181.4729 </r>
       <r>     5.3405    30.1662   184.1725 </r>
       <r>     5.4300    29.9790   186.8554 </r>
       <r>     5.5195    35.7015   190.0504 </r>
       <r>     5.6090    43.8625   193.9757 </r>
       <r>     5.6984    44.1768   197.9291 </r>
       <r>     5.7879    37.1965   201.2579 </r>
       <r>     5.8774    33.1404   204.2237 </r>
       <r>     5.9669    32.8846   207.1665 </r>
       <r>     6.0564    30.6153   209.9063 </r>
       <r>     6.1459    28.1558   212.4260 </r>
       <r>     6.2354    30.3142   215.1389 </r>
       <r>     6.3249    34.3832   218.2159 </r>
       <r>     6.4144    36.2489   221.4599 </r>
       <r>     6.5039    34.5220   224.5493 </r>
       <r>     6.5934    28.5883   227.1077 </r>
       <r>     6.6828    24.3142   229.2836 </r>
       <r>     6.7723    29.5091   231.9244 </r>
       <r>     6.8618    40.9691   235.5908 </r>
       <r>     6.9513    45.2330   239.6388 </r>
       <r>     7.0408    34.8854   242.7607 </r>
       <r>     7.1303    19.0061   244.4616 </r>
       <r>     7.2198    10.5519   245.4059 </r>
       <r>     7.3093    11.6119   246.4451 </r>
       <r>     7.3988    16.6723   247.9371 </r>
       <r>     7.4883    20.9582   249.8127 </r>
       <r>     7.5778    21.8767   251.7704 </r>
       <r>     7.6673    18.5464   253.4302 </r>
       <r>     7.7567    12.0970   254.5128 </r>
       <r>     7.8462     6.0618   255.0552 </r>
       <r>     7.9357     3.7821   255.3937 </r>
       <r>     8.0252     3.7341   255.7279 </r>
       <r>     8.1147     2.6433   255.9644 </r>
       <r>     8.2042     0.8098   256.0369 </r>
       <r>     8.2937    -0.1300   256.0253 </r>
       <r>     8.3832    -0.1946   256.0079 </r>
       <r>     8.4727    -0.0716   256.0014 </r>
       <r>     8.5622    -0.0143   256.0002 </r>
       <r>     8.6517    -0.0018   256.0000 </r>
       <r>     8.7411    -0.0003   256.0000 </r>
       <r>     8.8306    -0.0016   255.9998 </r>
       <r>     8.9201    -0.0090   255.9990 </r>
       <r>     9.0096    -0.0292   255.9964 </r>
       <r>     9.0991    -0.0361   255.9932 </r>
       <r>     9.1886     0.0822   256.0006 </r>
       <r>     9.2781     0.4101   256.0372 </r>
       <r>     9.3676     0.7272   256.1023 </r>
       <r>     9.4571     0.7489   256.1693 </r>
       <r>     9.5466     0.8083   256.2417 </r>
       <r>     9.6361     1.3543   256.3629 </r>
       <r>     9.7256     1.7745   256.5217 </r>
       <r>     9.8150     1.2512   256.6336 </r>
       <r>     9.9045     0.2591   256.6568 </r>
       <r>     9.9940    -0.1182   256.6463 </r>
       <r>    10.0835     0.6796   256.7071 </r>
       <r>    10.1730     2.2676   256.9100 </r>
       <r>    10.2625     3.7492   257.2455 </r>
       <r>    10.3520     5.6049   257.7471 </r>
       <r>    10.4415     8.6759   258.5235 </r>
       <r>    10.5310    11.1993   259.5258 </r>
       <r>    10.6205    11.5108   260.5559 </r>
       <r>    10.7100    10.2601   261.4741 </r>
       <r>    10.7995     7.5005   262.1453 </r>
       <r>    10.8889     3.4925   262.4579 </r>
       <r>    10.9784     0.3368   262.4880 </r>
       <r>    11.0679    -0.7840   262.4178 </r>
       <r>    11.1574    -0.0538   262.4130 </r>
       <r>    11.2469     2.6117   262.6467 </r>
       <r>    11.3364     6.0502   263.1882 </r>
       <r>    11.4259     8.0857   263.9118 </r>
       <r>    11.5154     9.4533   264.7578 </r>
       <r>    11.6049    11.6016   265.7960 </r>
       <r>    11.6944    13.0508   266.9639 </r>
       <r>    11.7839    14.3759   268.2505 </r>
       <r>    11.8733    18.3388   269.8916 </r>
       <r>    11.9628    22.4391   271.8997 </r>
       <r>    12.0523    22.0113   273.8696 </r>
       <r>    12.1418    17.7209   275.4554 </r>
       <r>    12.2313    12.1763   276.5451 </r>
       <r>    12.3208     6.2381   277.1033 </r>
       <r>    12.4103     2.4188   277.3198 </r>
       <r>    12.4998     4.7728   277.7469 </r>
       <r>    12.5893    13.3262   278.9395 </r>
       <r>    12.6788    22.3436   280.9391 </r>
       <r>    12.7683    26.9648   283.3522 </r>
       <r>    12.8578    27.9943   285.8574 </r>
       <r>    12.9472    28.4779   288.4060 </r>
       <r>    13.0367    31.6417   291.2376 </r>
       <r>    13.1262    36.5482   294.5084 </r>
       <r>    13.2157    35.2534   297.6633 </r>
       <r>    13.3052    24.6033   299.8650 </r>
       <r>    13.3947    13.8995   301.1089 </r>
       <r>    13.4842    14.3488   302.3930 </r>
       <r>    13.5737    25.5244   304.6772 </r>
       <r>    13.6632    35.5541   307.8590 </r>
       <r>    13.7527    35.4457   311.0311 </r>
       <r>    13.8422    28.9863   313.6251 </r>
       <r>    13.9316    26.0931   315.9602 </r>
       <r>    14.0211    29.4518   318.5959 </r>
       <r>    14.1106    32.2025   321.4778 </r>
       <r>    14.2001    28.2235   324.0035 </r>
       <r>    14.2896    18.4189   325.6518 </r>
       <r>    14.3791     8.0587   326.3730 </r>
       <r>    14.4686     2.2325   326.5728 </r>
       <r>    14.5581     3.3257   326.8704 </r>
       <r>    14.6476    10.5866   327.8178 </r>
       <r>    14.7371    18.7726   329.4978 </r>
       <r>    14.8266    21.2267   331.3974 </r>
       <r>    14.9161    17.6607   332.9779 </r>
       <r>    15.0055    12.2049   334.0701 </r>
       <r>    15.0950     6.6892   334.6688 </r>
       <r>    15.1845     2.0657   334.8536 </r>
       <r>    15.2740     0.2552   334.8765 </r>
       <r>    15.3635     1.6725   335.0261 </r>
       <r>    15.4530     4.0257   335.3864 </r>
       <r>    15.5425     4.3587   335.7765 </r>
       <r>    15.6320     2.4270   335.9937 </r>
       <r>    15.7215     0.4886   336.0374 </r>
       <r>    15.8110    -0.1981   336.0197 </r>
       <r>    15.9005    -0.1610   336.0053 </r>
       <r>    15.9899    -0.0492   336.0009 </r>
       <r>    16.0794    -0.0086   336.0001 </r>
       <r>    16.1689    -0.0009   336.0000 </r>
       <r>    16.2584    -0.0001   336.0000 </r>
       <r>    16.3479    -0.0000   336.0000 </r>
       <r>    16.4374    -0.0000   336.0000 </r>
       <r>    16.5269    -0.0000   336.0000 </r>
       <r>    16.6164    -0.0000   336.0000 </r>
       <r>    16.7059    -0.0000   336.0000 </r>
       <r>    16.7954    -0.0000   336.0000 </r>
       <r>    16.8849     0.0000   336.0000 </r>
       <r>    16.9744     0.0000   336.0000 </r>
       <r>    17.0638     0.0000   336.0000 </r>
       <r>    17.1533     0.0000   336.0000 </r>
       <r>    17.2428     0.0000   336.0000 </r>
       <r>    17.3323     0.0000   336.0000 </r>
       <r>    17.4218     0.0000   336.0000 </r>
       <r>    17.5113     0.0000   336.0000 </r>
      </set>
     </set>
    </array>
   </total>
  </dos>
 </calculation>
 <structure name="finalpos" >
  <crystal>
   <varray name="basis" >
    <v>       8.74331558       0.00000000       0.00000000 </v>
    <v>       0.00000000       8.74331558       0.00000000 </v>
    <v>       0.00000000       0.00000000       8.74331558 </v>
   </varray>
   <i name="volume">    668.38771987 </i>
   <varray name="rec_basis" >
    <v>       0.11437309       0.00000000       0.00000000 </v>
    <v>       0.00000000       0.11437309       0.00000000 </v>
    <v>       0.00000000       0.00000000       0.11437309 </v>
   </varray>
  </crystal>
  <varray name="positions" >
   <v>       0.12630915       0.12792203       0.12999378 </v>
   <v>       0.12608139       0.37350222       0.37688180 </v>
   <v>       0.37600315       0.12620762       0.37559011 </v>
   <v>       0.37271292       0.37451238       0.12302904 </v>
   <v>       0.12401519       0.12602559       0.62727021 </v>
   <v>       0.12882746       0.37450546       0.87338881 </v>
   <v>       0.37320152       0.12369524       0.87451460 </v>
   <v>       0.37087897       0.37539929       0.62575037 </v>
   <v>       0.12707441       0.62435976       0.12598714 </v>
   <v>       0.12516798       0.87625291       0.37645003 </v>
   <v>       0.37238131       0.62505459       0.37610394 </v>
   <v>       0.37569451       0.87514270       0.12544947 </v>
   <v>       0.12350448       0.62616843       0.62178811 </v>
   <v>       0.12472118       0.87340592       0.87598052 </v>
   <v>       0.37520238       0.62804683       0.87565466 </v>
   <v>       0.37486923       0.87378366       0.62349856 </v>
   <v>       0.62317551       0.12516006       0.12306153 </v>
   <v>       0.62364735       0.37410105       0.37824266 </v>
   <v>       0.87262226       0.12724930       0.37500770 </v>
   <v>       0.87419370       0.37512631       0.12649111 </v>
   <v>       0.62482587       0.12137439       0.62373266 </v>
   <v>       0.62810447       0.37106368       0.87582903 </v>
   <v>       0.87203043       0.12646612       0.87357857 </v>
   <v>       0.87399070       0.37559746       0.62417133 </v>
   <v>       0.62459328       0.62256774       0.12525494 </v>
   <v>       0.62372661       0.87414634       0.37379244 </v>
   <v>       0.87439948       0.62418095       0.37472318 </v>
   <v>       0.87445435       0.87631807       0.12645098 </v>
   <v>       0.62354796       0.62635003       0.62518852 </v>
   <v>       0.62706290       0.87320107       0.87438180 </v>
   <v>       0.87658977       0.62408304       0.87720656 </v>
   <v>       0.87815984       0.87371302       0.62535428 </v>
   <v>       0.00038515       0.00129886       0.99997982 </v>
   <v>       0.00048413       0.24996245       0.25230746 </v>
   <v>       0.25048965       0.99987234       0.25133220 </v>
   <v>       0.25073884       0.25118725       0.00116533 </v>
   <v>       0.99625768       0.99814741       0.50053744 </v>
   <v>       0.00153302       0.24665489       0.75114310 </v>
   <v>       0.25023276       0.00042227       0.75023487 </v>
   <v>       0.24968809       0.24880378       0.50170667 </v>
   <v>       0.00271174       0.49888213       0.00023083 </v>
   <v>       0.99885314       0.74973836       0.25398399 </v>
   <v>       0.24967092       0.49953396       0.24671947 </v>
   <v>       0.24966672       0.75114610       0.00209296 </v>
   <v>       0.00025440       0.49918754       0.49953443 </v>
   <v>       0.99853384       0.74879805       0.75121330 </v>
   <v>       0.24939687       0.49952178       0.75208776 </v>
   <v>       0.24716396       0.74806239       0.49851369 </v>
   <v>       0.49721957       0.00018110       0.99857885 </v>
   <v>       0.50038738       0.25014692       0.24907505 </v>
   <v>       0.75251470       0.99969446       0.24923650 </v>
   <v>       0.74937281       0.24971884       0.99668167 </v>
   <v>       0.50019399       0.00111453       0.50163582 </v>
   <v>       0.49918790       0.25138815       0.75049740 </v>
   <v>       0.75168949       0.99983064       0.74847011 </v>
   <v>       0.74908343       0.25091700       0.49944042 </v>
   <v>       0.49747954       0.49799797       0.99756975 </v>
   <v>       0.49927089       0.75320421       0.24976660 </v>
   <v>       0.74829911       0.50023653       0.24899130 </v>
   <v>       0.74810164       0.75131076       0.99792882 </v>
   <v>       0.49800837       0.50049113       0.49873072 </v>
   <v>       0.49846478       0.74998146       0.75173223 </v>
   <v>       0.75014215       0.50205540       0.75028862 </v>
   <v>       0.75249364       0.74981344       0.49985647 </v>
  </varray>
 </structure>
</modeling>
