unknown system                          
           1
     8.743316    0.000000    0.000000
     0.000000    8.743316    0.000000
     0.000000    0.000000    8.743316
   C    Si
    32    32
Direct configuration=     1
   0.12630915  0.12792203  0.12999378
   0.12608139  0.37350222  0.37688180
   0.37600315  0.12620762  0.37559011
   0.37271292  0.37451238  0.12302904
   0.12401519  0.12602559  0.62727021
   0.12882746  0.37450546  0.87338881
   0.37320152  0.12369524  0.87451460
   0.37087897  0.37539929  0.62575037
   0.12707441  0.62435976  0.12598714
   0.12516798  0.87625291  0.37645003
   0.37238131  0.62505459  0.37610394
   0.37569451  0.87514270  0.12544947
   0.12350448  0.62616843  0.62178811
   0.12472118  0.87340592  0.87598052
   0.37520238  0.62804683  0.87565466
   0.37486923  0.87378366  0.62349856
   0.62317551  0.12516006  0.12306153
   0.62364735  0.37410105  0.37824266
   0.87262226  0.12724930  0.37500770
   0.87419370  0.37512631  0.12649111
   0.62482587  0.12137439  0.62373266
   0.62810447  0.37106368  0.87582903
   0.87203043  0.12646612  0.87357857
   0.87399070  0.37559746  0.62417133
   0.62459328  0.62256774  0.12525494
   0.62372661  0.87414634  0.37379244
   0.87439948  0.62418095  0.37472318
   0.87445435  0.87631807  0.12645098
   0.62354796  0.62635003  0.62518852
   0.62706290  0.87320107  0.87438180
   0.87658977  0.62408304  0.87720656
   0.87815984  0.87371302  0.62535428
   0.00038515  0.00129886  0.99997982
   0.00048413  0.24996245  0.25230746
   0.25048965  0.99987234  0.25133220
   0.25073884  0.25118725  0.00116533
   0.99625768  0.99814741  0.50053744
   0.00153302  0.24665489  0.75114310
   0.25023276  0.00042227  0.75023487
   0.24968809  0.24880378  0.50170667
   0.00271174  0.49888213  0.00023083
   0.99885314  0.74973836  0.25398399
   0.24967092  0.49953396  0.24671947
   0.24966672  0.75114610  0.00209296
   0.00025440  0.49918754  0.49953443
   0.99853384  0.74879805  0.75121330
   0.24939687  0.49952178  0.75208776
   0.24716396  0.74806239  0.49851369
   0.49721957  0.00018110  0.99857885
   0.50038738  0.25014692  0.24907505
   0.75251470  0.99969446  0.24923650
   0.74937281  0.24971884  0.99668167
   0.50019399  0.00111453  0.50163582
   0.49918790  0.25138815  0.75049740
   0.75168949  0.99983064  0.74847011
   0.74908343  0.25091700  0.49944042
   0.49747954  0.49799797  0.99756975
   0.49927089  0.75320421  0.24976660
   0.74829911  0.50023653  0.24899130
   0.74810164  0.75131076  0.99792882
   0.49800837  0.50049113  0.49873072
   0.49846478  0.74998146  0.75173223
   0.75014215  0.50205540  0.75028862
   0.75249364  0.74981344  0.49985647
