  64  64   0   0
  0.1044356E+02  0.8743316E-09  0.8743316E-09  0.8743316E-09  0.5000000E-15
  1.000000000000000E-004
  CAR 
 unknown system                          
     17.48925291     -9.33021975  301      8.13344817      1.00000000
     -9.330  0.0000E+00  0.0000E+00
     -9.241  0.0000E+00  0.0000E+00
     -9.151  0.0000E+00  0.0000E+00
     -9.062  0.0000E+00  0.0000E+00
     -8.973 -0.9896E-29 -0.8846E-30
     -8.883 -0.1181E-25 -0.1057E-26
     -8.794 -0.9428E-23 -0.8439E-24
     -8.704 -0.5026E-20 -0.4502E-21
     -8.615 -0.1789E-17 -0.1604E-18
     -8.526 -0.4247E-15 -0.3812E-16
     -8.436 -0.6502E-13 -0.5851E-14
     -8.347 -0.6804E-11 -0.6142E-12
     -8.257 -0.4723E-09 -0.4284E-10
     -8.168 -0.2168E-07 -0.1981E-08
     -8.079 -0.6553E-06 -0.6056E-07
     -7.989 -0.1297E-04 -0.1220E-05
     -7.900 -0.1666E-03 -0.1612E-04
     -7.810 -0.1374E-02 -0.1390E-03
     -7.721 -0.7147E-02 -0.7779E-03
     -7.632 -0.2279E-01 -0.2815E-02
     -7.542 -0.4103E-01 -0.6483E-02
     -7.453 -0.1852E-01 -0.8139E-02
     -7.363  0.1458E+00  0.4894E-02
     -7.274  0.6243E+00  0.6070E-01
     -7.185  0.1536E+01  0.1981E+00
     -7.095  0.2776E+01  0.4462E+00
     -7.006  0.3990E+01  0.8029E+00
     -6.916  0.4545E+01  0.1209E+01
     -6.827  0.4089E+01  0.1575E+01
     -6.738  0.3129E+01  0.1855E+01
     -6.648  0.2707E+01  0.2097E+01
     -6.559  0.4005E+01  0.2455E+01
     -6.469  0.7082E+01  0.3088E+01
     -6.380  0.9971E+01  0.3979E+01
     -6.291  0.1050E+02  0.4918E+01
     -6.201  0.7922E+01  0.5626E+01
     -6.112  0.3805E+01  0.5966E+01
     -6.022  0.1691E+01  0.6117E+01
     -5.933  0.3344E+01  0.6416E+01
     -5.844  0.7195E+01  0.7059E+01
     -5.754  0.1057E+02  0.8004E+01
     -5.665  0.1177E+02  0.9056E+01
     -5.575  0.1150E+02  0.1008E+02
     -5.486  0.1117E+02  0.1108E+02
     -5.397  0.1018E+02  0.1199E+02
     -5.307  0.7701E+01  0.1268E+02
     -5.218  0.5798E+01  0.1320E+02
     -5.129  0.7969E+01  0.1391E+02
     -5.039  0.1389E+02  0.1515E+02
     -4.950  0.1780E+02  0.1675E+02
     -4.860  0.1421E+02  0.1802E+02
     -4.771  0.6007E+01  0.1855E+02
     -4.682  0.1950E+01  0.1873E+02
     -4.592  0.5599E+01  0.1923E+02
     -4.503  0.1256E+02  0.2035E+02
     -4.413  0.1780E+02  0.2194E+02
     -4.324  0.1997E+02  0.2373E+02
     -4.235  0.1834E+02  0.2537E+02
     -4.145  0.1437E+02  0.2665E+02
     -4.056  0.1532E+02  0.2802E+02
     -3.966  0.2290E+02  0.3007E+02
     -3.877  0.2608E+02  0.3240E+02
     -3.788  0.1892E+02  0.3409E+02
     -3.698  0.1050E+02  0.3503E+02
     -3.609  0.9237E+01  0.3586E+02
     -3.519  0.1503E+02  0.3720E+02
     -3.430  0.2327E+02  0.3928E+02
     -3.341  0.2563E+02  0.4157E+02
     -3.251  0.1924E+02  0.4329E+02
     -3.162  0.1333E+02  0.4448E+02
     -3.072  0.1495E+02  0.4582E+02
     -2.983  0.2142E+02  0.4773E+02
     -2.894  0.2889E+02  0.5032E+02
     -2.804  0.3267E+02  0.5324E+02
     -2.715  0.2724E+02  0.5567E+02
     -2.625  0.1602E+02  0.5710E+02
     -2.536  0.8887E+01  0.5790E+02
     -2.447  0.9629E+01  0.5876E+02
     -2.357  0.1489E+02  0.6009E+02
     -2.268  0.1852E+02  0.6175E+02
     -2.178  0.1565E+02  0.6314E+02
     -2.089  0.8323E+01  0.6389E+02
     -2.000  0.2279E+01  0.6409E+02
     -1.910 -0.2244E+00  0.6407E+02
     -1.821 -0.5065E+00  0.6403E+02
     -1.731 -0.2325E+00  0.6401E+02
     -1.642 -0.5978E-01  0.6400E+02
     -1.553 -0.9625E-02  0.6400E+02
     -1.463 -0.1003E-02  0.6400E+02
     -1.374 -0.6858E-04  0.6400E+02
     -1.284 -0.3452E-05  0.6400E+02
     -1.195 -0.9095E-05  0.6400E+02
     -1.106 -0.1490E-03  0.6400E+02
     -1.016 -0.1577E-02  0.6400E+02
     -0.927 -0.1034E-01  0.6400E+02
     -0.837 -0.3902E-01  0.6400E+02
     -0.748 -0.6422E-01  0.6399E+02
     -0.659  0.6388E-01  0.6400E+02
     -0.569  0.4637E+00  0.6404E+02
     -0.480  0.7691E+00  0.6411E+02
     -0.390  0.7029E+00  0.6417E+02
     -0.301  0.1616E+01  0.6431E+02
     -0.212  0.5180E+01  0.6478E+02
     -0.122  0.9746E+01  0.6565E+02
     -0.033  0.1126E+02  0.6665E+02
      0.057  0.8501E+01  0.6741E+02
      0.146  0.5536E+01  0.6791E+02
      0.235  0.7173E+01  0.6855E+02
      0.325  0.1278E+02  0.6969E+02
      0.414  0.1863E+02  0.7136E+02
      0.504  0.2317E+02  0.7343E+02
      0.593  0.2562E+02  0.7572E+02
      0.682  0.2644E+02  0.7808E+02
      0.772  0.2914E+02  0.8069E+02
      0.861  0.3255E+02  0.8360E+02
      0.951  0.3089E+02  0.8636E+02
      1.040  0.2763E+02  0.8883E+02
      1.129  0.3145E+02  0.9164E+02
      1.219  0.3990E+02  0.9521E+02
      1.308  0.4104E+02  0.9888E+02
      1.398  0.2949E+02  0.1015E+03
      1.487  0.1331E+02  0.1027E+03
      1.576  0.2450E+01  0.1029E+03
      1.666 -0.1290E+01  0.1028E+03
      1.755 -0.1199E+01  0.1027E+03
      1.845  0.9683E+00  0.1028E+03
      1.934  0.7707E+01  0.1035E+03
      2.023  0.2000E+02  0.1053E+03
      2.113  0.2883E+02  0.1078E+03
      2.202  0.2478E+02  0.1101E+03
      2.292  0.1313E+02  0.1112E+03
      2.381  0.5247E+01  0.1117E+03
      2.470  0.4875E+01  0.1121E+03
      2.560  0.1001E+02  0.1130E+03
      2.649  0.1635E+02  0.1145E+03
      2.739  0.1773E+02  0.1161E+03
      2.828  0.1371E+02  0.1173E+03
      2.917  0.1242E+02  0.1184E+03
      3.007  0.1677E+02  0.1199E+03
      3.096  0.2131E+02  0.1218E+03
      3.186  0.2619E+02  0.1242E+03
      3.275  0.3317E+02  0.1271E+03
      3.364  0.3496E+02  0.1302E+03
      3.454  0.2951E+02  0.1329E+03
      3.543  0.2544E+02  0.1352E+03
      3.633  0.2401E+02  0.1373E+03
      3.722  0.1909E+02  0.1390E+03
      3.811  0.1209E+02  0.1401E+03
      3.901  0.1186E+02  0.1412E+03
      3.990  0.2059E+02  0.1430E+03
      4.080  0.2699E+02  0.1454E+03
      4.169  0.2252E+02  0.1474E+03
      4.258  0.1685E+02  0.1489E+03
      4.348  0.2165E+02  0.1509E+03
      4.437  0.3167E+02  0.1537E+03
      4.527  0.3712E+02  0.1570E+03
      4.616  0.3722E+02  0.1603E+03
      4.705  0.3506E+02  0.1635E+03
      4.795  0.3452E+02  0.1666E+03
      4.884  0.3637E+02  0.1698E+03
      4.973  0.3503E+02  0.1729E+03
      5.063  0.3057E+02  0.1757E+03
      5.152  0.2986E+02  0.1783E+03
      5.242  0.3152E+02  0.1812E+03
      5.331  0.2991E+02  0.1838E+03
      5.420  0.2863E+02  0.1864E+03
      5.510  0.3494E+02  0.1895E+03
      5.599  0.4488E+02  0.1935E+03
      5.689  0.4583E+02  0.1976E+03
      5.778  0.3793E+02  0.2010E+03
      5.867  0.3302E+02  0.2040E+03
      5.957  0.3262E+02  0.2069E+03
      6.046  0.3056E+02  0.2096E+03
      6.136  0.2806E+02  0.2121E+03
      6.225  0.3012E+02  0.2148E+03
      6.314  0.3450E+02  0.2179E+03
      6.404  0.3680E+02  0.2212E+03
      6.493  0.3547E+02  0.2244E+03
      6.583  0.2902E+02  0.2270E+03
      6.672  0.2307E+02  0.2290E+03
      6.761  0.2806E+02  0.2315E+03
      6.851  0.4229E+02  0.2353E+03
      6.940  0.4848E+02  0.2396E+03
      7.030  0.3624E+02  0.2429E+03
      7.119  0.1792E+02  0.2445E+03
      7.208  0.9317E+01  0.2453E+03
      7.298  0.1127E+02  0.2463E+03
      7.387  0.1689E+02  0.2478E+03
      7.477  0.2132E+02  0.2497E+03
      7.566  0.2220E+02  0.2517E+03
      7.655  0.1877E+02  0.2534E+03
      7.745  0.1222E+02  0.2545E+03
      7.834  0.6042E+01  0.2550E+03
      7.924  0.3688E+01  0.2554E+03
      8.013  0.3744E+01  0.2557E+03
      8.102  0.2771E+01  0.2560E+03
      8.192  0.9122E+00  0.2560E+03
      8.281 -0.1058E+00  0.2560E+03
      8.371 -0.2022E+00  0.2560E+03
      8.460 -0.7774E-01  0.2560E+03
      8.549 -0.1598E-01  0.2560E+03
      8.639 -0.2011E-02  0.2560E+03
      8.728 -0.2311E-03  0.2560E+03
      8.818 -0.8082E-03  0.2560E+03
      8.907 -0.5737E-02  0.2560E+03
      8.996 -0.2410E-01  0.2560E+03
      9.086 -0.4776E-01  0.2560E+03
      9.175  0.2267E-01  0.2560E+03
      9.265  0.3320E+00  0.2560E+03
      9.354  0.7267E+00  0.2561E+03
      9.443  0.7997E+00  0.2562E+03
      9.533  0.7347E+00  0.2562E+03
      9.622  0.1164E+01  0.2563E+03
      9.712  0.1734E+01  0.2565E+03
      9.801  0.1452E+01  0.2566E+03
      9.890  0.4668E+00  0.2567E+03
      9.980 -0.1355E+00  0.2566E+03
     10.069  0.4082E+00  0.2567E+03
     10.159  0.1920E+01  0.2569E+03
     10.248  0.3329E+01  0.2572E+03
     10.337  0.4838E+01  0.2576E+03
     10.427  0.7936E+01  0.2583E+03
     10.516  0.1109E+02  0.2593E+03
     10.606  0.1168E+02  0.2603E+03
     10.695  0.1058E+02  0.2613E+03
     10.784  0.8396E+01  0.2620E+03
     10.874  0.4525E+01  0.2624E+03
     10.963  0.8452E+00  0.2625E+03
     11.053 -0.7573E+00  0.2624E+03
     11.142 -0.4875E+00  0.2624E+03
     11.231  0.1625E+01  0.2625E+03
     11.321  0.5041E+01  0.2630E+03
     11.410  0.7452E+01  0.2637E+03
     11.500  0.8818E+01  0.2644E+03
     11.589  0.1120E+02  0.2654E+03
     11.678  0.1312E+02  0.2666E+03
     11.768  0.1376E+02  0.2678E+03
     11.857  0.1699E+02  0.2694E+03
     11.947  0.2230E+02  0.2714E+03
     12.036  0.2344E+02  0.2735E+03
     12.125  0.1919E+02  0.2752E+03
     12.215  0.1330E+02  0.2764E+03
     12.304  0.7347E+01  0.2770E+03
     12.394  0.2424E+01  0.2772E+03
     12.483  0.2511E+01  0.2775E+03
     12.572  0.1039E+02  0.2784E+03
     12.662  0.2138E+02  0.2803E+03
     12.751  0.2722E+02  0.2827E+03
     12.841  0.2717E+02  0.2852E+03
     12.930  0.2651E+02  0.2875E+03
     13.019  0.2976E+02  0.2902E+03
     13.109  0.3685E+02  0.2935E+03
     13.198  0.3877E+02  0.2970E+03
     13.288  0.2871E+02  0.2995E+03
     13.377  0.1523E+02  0.3009E+03
     13.466  0.1203E+02  0.3020E+03
     13.556  0.2181E+02  0.3039E+03
     13.645  0.3411E+02  0.3070E+03
     13.735  0.3722E+02  0.3103E+03
     13.824  0.3111E+02  0.3131E+03
     13.913  0.2592E+02  0.3154E+03
     14.003  0.2766E+02  0.3179E+03
     14.092  0.3152E+02  0.3207E+03
     14.182  0.3028E+02  0.3234E+03
     14.271  0.2203E+02  0.3253E+03
     14.360  0.1073E+02  0.3263E+03
     14.450  0.2793E+01  0.3266E+03
     14.539  0.1681E+01  0.3267E+03
     14.629  0.7214E+01  0.3274E+03
     14.718  0.1554E+02  0.3287E+03
     14.807  0.2006E+02  0.3305E+03
     14.897  0.1892E+02  0.3322E+03
     14.986  0.1520E+02  0.3336E+03
     15.076  0.9990E+01  0.3345E+03
     15.165  0.4059E+01  0.3348E+03
     15.254  0.3045E+00  0.3349E+03
     15.344  0.3592E+00  0.3349E+03
     15.433  0.2920E+01  0.3352E+03
     15.522  0.4761E+01  0.3356E+03
     15.612  0.3729E+01  0.3359E+03
     15.701  0.1323E+01  0.3360E+03
     15.791 -0.5757E-01  0.3360E+03
     15.880 -0.2370E+00  0.3360E+03
     15.969 -0.9551E-01  0.3360E+03
     16.059 -0.1975E-01  0.3360E+03
     16.148 -0.2444E-02  0.3360E+03
     16.238 -0.1904E-03  0.3360E+03
     16.327 -0.9565E-05  0.3360E+03
     16.416 -0.3136E-06  0.3360E+03
     16.506 -0.6764E-08  0.3360E+03
     16.595 -0.9644E-10  0.3360E+03
     16.685 -0.9115E-12  0.3360E+03
     16.774 -0.5887E-14  0.3360E+03
     16.863  0.0000E+00  0.3360E+03
     16.953  0.0000E+00  0.3360E+03
     17.042  0.0000E+00  0.3360E+03
     17.132  0.0000E+00  0.3360E+03
     17.221  0.0000E+00  0.3360E+03
     17.310  0.0000E+00  0.3360E+03
     17.400  0.0000E+00  0.3360E+03
     17.489  0.0000E+00  0.3360E+03
