<?xml version="1.0" encoding="ISO-8859-1"?>
<modeling>
 <generator>
  <i name="program" type="string">vasp </i>
  <i name="version" type="string">5.4.4.18Apr17-6-g9f103f2a35  </i>
  <i name="subversion" type="string">(build Feb 12 2020 19:11:22) complex            parallel </i>
  <i name="platform" type="string">LinuxIFC </i>
  <i name="date" type="string">2020 03 20 </i>
  <i name="time" type="string">22:31:03 </i>
 </generator>
 <incar>
  <i type="string" name="PREC">normal</i>
  <i type="int" name="NELM">    60</i>
  <i type="int" name="IBRION">     1</i>
  <i name="EDIFF">      0.00000001</i>
  <i type="int" name="NSW">     0</i>
  <i type="int" name="ISIF">     3</i>
  <i type="int" name="ISYM">     0</i>
  <i type="logical" name="LWAVE"> F  </i>
  <i type="logical" name="LCHARG"> F  </i>
  <v type="int" name="KPOINT_BSE">    -1     0     0     0</v>
  <i type="int" name="NELM">    60</i>
  <i type="string" name="GGA"> PE</i>
 </incar>
 <structure name="primitive_cell" >
  <crystal>
   <varray name="basis" >
    <v>       8.74331558       0.00000000       0.00000000 </v>
    <v>       0.00000000       8.74331558       0.00000000 </v>
    <v>       0.00000000       0.00000000       8.74331558 </v>
   </varray>
   <i name="volume">    668.38771987 </i>
   <varray name="rec_basis" >
    <v>       0.11437309       0.00000000       0.00000000 </v>
    <v>       0.00000000       0.11437309       0.00000000 </v>
    <v>       0.00000000       0.00000000       0.11437309 </v>
   </varray>
  </crystal>
  <varray name="positions" >
   <v>       0.12500000       0.12500000       0.12500000 </v>
   <v>       0.00000000       0.00000000       0.00000000 </v>
   <v>       0.00000000       0.25000000       0.25000000 </v>
   <v>       0.25000000       0.00000000       0.25000000 </v>
   <v>       0.25000000       0.25000000       0.00000000 </v>
   <v>       0.12500000       0.37500000       0.37500000 </v>
   <v>       0.37500000       0.12500000       0.37500000 </v>
   <v>       0.37500000       0.37500000       0.12500000 </v>
   <v>       0.12500000       0.37500000      -0.12500000 </v>
   <v>       0.37500000       0.12500000      -0.12500000 </v>
   <v>       0.12500000      -0.12500000       0.37500000 </v>
   <v>       0.37500000      -0.12500000       0.12500000 </v>
   <v>       0.12500000      -0.12500000      -0.12500000 </v>
   <v>      -0.12500000       0.12500000       0.37500000 </v>
   <v>      -0.12500000       0.37500000       0.12500000 </v>
   <v>      -0.12500000       0.12500000      -0.12500000 </v>
   <v>      -0.12500000      -0.12500000       0.12500000 </v>
   <v>       0.00000000       0.00000000      -0.50000000 </v>
   <v>       0.00000000       0.25000000      -0.25000000 </v>
   <v>       0.25000000       0.00000000      -0.25000000 </v>
   <v>       0.25000000       0.25000000      -0.50000000 </v>
   <v>       0.00000000      -0.50000000       0.00000000 </v>
   <v>       0.00000000      -0.25000000       0.25000000 </v>
   <v>       0.25000000      -0.50000000       0.25000000 </v>
   <v>       0.25000000      -0.25000000       0.00000000 </v>
   <v>      -0.50000000       0.00000000       0.00000000 </v>
   <v>      -0.50000000       0.25000000       0.25000000 </v>
   <v>      -0.25000000       0.00000000       0.25000000 </v>
   <v>      -0.25000000       0.25000000       0.00000000 </v>
   <v>       0.12500000       0.12500000      -0.37500000 </v>
   <v>       0.12500000      -0.37500000       0.12500000 </v>
   <v>      -0.37500000       0.12500000       0.12500000 </v>
   <v>       0.00000000      -0.50000000      -0.50000000 </v>
   <v>       0.00000000      -0.25000000      -0.25000000 </v>
   <v>       0.25000000      -0.50000000      -0.25000000 </v>
   <v>       0.25000000      -0.25000000      -0.50000000 </v>
   <v>      -0.50000000       0.00000000      -0.50000000 </v>
   <v>      -0.50000000       0.25000000      -0.25000000 </v>
   <v>      -0.25000000       0.00000000      -0.25000000 </v>
   <v>      -0.25000000       0.25000000      -0.50000000 </v>
   <v>      -0.50000000      -0.50000000       0.00000000 </v>
   <v>      -0.50000000      -0.25000000       0.25000000 </v>
   <v>      -0.25000000      -0.50000000       0.25000000 </v>
   <v>      -0.25000000      -0.25000000       0.00000000 </v>
   <v>       0.37500000       0.37500000      -0.37500000 </v>
   <v>       0.37500000      -0.12500000      -0.37500000 </v>
   <v>      -0.12500000       0.37500000      -0.37500000 </v>
   <v>      -0.12500000      -0.12500000      -0.37500000 </v>
   <v>       0.37500000      -0.37500000       0.37500000 </v>
   <v>       0.37500000      -0.37500000      -0.12500000 </v>
   <v>      -0.37500000       0.37500000       0.37500000 </v>
   <v>      -0.37500000       0.37500000      -0.12500000 </v>
   <v>      -0.37500000      -0.12500000       0.37500000 </v>
   <v>      -0.12500000      -0.37500000       0.37500000 </v>
   <v>      -0.37500000      -0.12500000      -0.12500000 </v>
   <v>      -0.12500000      -0.37500000      -0.12500000 </v>
   <v>      -0.50000000      -0.50000000      -0.50000000 </v>
   <v>      -0.50000000      -0.25000000      -0.25000000 </v>
   <v>      -0.25000000      -0.50000000      -0.25000000 </v>
   <v>      -0.25000000      -0.25000000      -0.50000000 </v>
   <v>       0.12500000      -0.37500000      -0.37500000 </v>
   <v>      -0.37500000       0.12500000      -0.37500000 </v>
   <v>      -0.37500000      -0.37500000       0.12500000 </v>
   <v>      -0.37500000      -0.37500000      -0.37500000 </v>
  </varray>
 </structure>
 <varray name="primitive_index" >
  <v type="int" >        1 </v>
  <v type="int" >       33 </v>
  <v type="int" >       34 </v>
  <v type="int" >       35 </v>
  <v type="int" >       36 </v>
  <v type="int" >        2 </v>
  <v type="int" >        3 </v>
  <v type="int" >        4 </v>
  <v type="int" >        6 </v>
  <v type="int" >        7 </v>
  <v type="int" >       10 </v>
  <v type="int" >       12 </v>
  <v type="int" >       14 </v>
  <v type="int" >       19 </v>
  <v type="int" >       20 </v>
  <v type="int" >       23 </v>
  <v type="int" >       28 </v>
  <v type="int" >       37 </v>
  <v type="int" >       38 </v>
  <v type="int" >       39 </v>
  <v type="int" >       40 </v>
  <v type="int" >       41 </v>
  <v type="int" >       42 </v>
  <v type="int" >       43 </v>
  <v type="int" >       44 </v>
  <v type="int" >       49 </v>
  <v type="int" >       50 </v>
  <v type="int" >       51 </v>
  <v type="int" >       52 </v>
  <v type="int" >        5 </v>
  <v type="int" >        9 </v>
  <v type="int" >       17 </v>
  <v type="int" >       45 </v>
  <v type="int" >       46 </v>
  <v type="int" >       47 </v>
  <v type="int" >       48 </v>
  <v type="int" >       53 </v>
  <v type="int" >       54 </v>
  <v type="int" >       55 </v>
  <v type="int" >       56 </v>
  <v type="int" >       57 </v>
  <v type="int" >       58 </v>
  <v type="int" >       59 </v>
  <v type="int" >       60 </v>
  <v type="int" >        8 </v>
  <v type="int" >       16 </v>
  <v type="int" >       24 </v>
  <v type="int" >       32 </v>
  <v type="int" >       11 </v>
  <v type="int" >       15 </v>
  <v type="int" >       18 </v>
  <v type="int" >       22 </v>
  <v type="int" >       26 </v>
  <v type="int" >       27 </v>
  <v type="int" >       30 </v>
  <v type="int" >       31 </v>
  <v type="int" >       61 </v>
  <v type="int" >       62 </v>
  <v type="int" >       63 </v>
  <v type="int" >       64 </v>
  <v type="int" >       13 </v>
  <v type="int" >       21 </v>
  <v type="int" >       25 </v>
  <v type="int" >       29 </v>
 </varray>
 <kpoints>
  <generation param="Monkhorst-Pack">
   <v type="int" name="divisions">       3        3        3 </v>
   <v name="usershift">      0.00000000       0.00000000       0.00000000 </v>
   <v name="genvec1">      0.33333333       0.00000000       0.00000000 </v>
   <v name="genvec2">      0.00000000       0.33333333       0.00000000 </v>
   <v name="genvec3">      0.00000000       0.00000000       0.33333333 </v>
   <v name="shift">      0.00000000       0.00000000       0.00000000 </v>
  </generation>
  <varray name="kpointlist" >
   <v>       0.00000000       0.00000000       0.00000000 </v>
   <v>       0.33333333       0.00000000       0.00000000 </v>
   <v>       0.00000000       0.33333333       0.00000000 </v>
   <v>       0.33333333       0.33333333       0.00000000 </v>
   <v>      -0.33333333       0.33333333       0.00000000 </v>
   <v>       0.00000000       0.00000000       0.33333333 </v>
   <v>       0.33333333       0.00000000       0.33333333 </v>
   <v>      -0.33333333       0.00000000       0.33333333 </v>
   <v>       0.00000000       0.33333333       0.33333333 </v>
   <v>       0.33333333       0.33333333       0.33333333 </v>
   <v>      -0.33333333       0.33333333       0.33333333 </v>
   <v>       0.00000000      -0.33333333       0.33333333 </v>
   <v>       0.33333333      -0.33333333       0.33333333 </v>
   <v>      -0.33333333      -0.33333333       0.33333333 </v>
  </varray>
  <varray name="weights" >
   <v>       0.03703704 </v>
   <v>       0.07407407 </v>
   <v>       0.07407407 </v>
   <v>       0.07407407 </v>
   <v>       0.07407407 </v>
   <v>       0.07407407 </v>
   <v>       0.07407407 </v>
   <v>       0.07407407 </v>
   <v>       0.07407407 </v>
   <v>       0.07407407 </v>
   <v>       0.07407407 </v>
   <v>       0.07407407 </v>
   <v>       0.07407407 </v>
   <v>       0.07407407 </v>
  </varray>
 </kpoints>
 <parameters>
  <separator name="general" >
   <i type="string" name="SYSTEM">unknown system</i>
   <i type="logical" name="LCOMPAT"> F  </i>
  </separator>
  <separator name="electronic" >
   <i type="string" name="PREC">normal</i>
   <i name="ENMAX">    400.00000000</i>
   <i name="ENAUG">    644.87300000</i>
   <i name="EDIFF">      0.00000001</i>
   <i type="int" name="IALGO">    38</i>
   <i type="int" name="IWAVPR">    10</i>
   <i type="int" name="NBANDS">   168</i>
   <i name="NELECT">    256.00000000</i>
   <i type="int" name="TURBO">     0</i>
   <i type="int" name="IRESTART">     0</i>
   <i type="int" name="NREBOOT">     0</i>
   <i type="int" name="NMIN">     0</i>
   <i name="EREF">      0.00000000</i>
   <separator name="electronic smearing" >
    <i type="int" name="ISMEAR">     1</i>
    <i name="SIGMA">      0.20000000</i>
    <i name="KSPACING">      0.50000000</i>
    <i type="logical" name="KGAMMA"> T  </i>
   </separator>
   <separator name="electronic projectors" >
    <i type="logical" name="LREAL"> F  </i>
    <v name="ROPT">      0.00000000      0.00000000</v>
    <i type="int" name="LMAXPAW">  -100</i>
    <i type="int" name="LMAXMIX">     2</i>
    <i type="logical" name="NLSPLINE"> F  </i>
   </separator>
   <separator name="electronic startup" >
    <i type="int" name="ISTART">     0</i>
    <i type="int" name="ICHARG">     2</i>
    <i type="int" name="INIWAV">     1</i>
   </separator>
   <separator name="electronic spin" >
    <i type="int" name="ISPIN">     1</i>
    <i type="logical" name="LNONCOLLINEAR"> F  </i>
    <v name="MAGMOM">      1.00000000      1.00000000      1.00000000      1.00000000      1.00000000      1.00000000      1.00000000      1.00000000      1.00000000      1.00000000      1.00000000      1.00000000      1.00000000      1.00000000      1.00000000      1.00000000      1.00000000      1.00000000      1.00000000      1.00000000
      1.00000000      1.00000000      1.00000000      1.00000000      1.00000000      1.00000000      1.00000000      1.00000000      1.00000000      1.00000000      1.00000000      1.00000000      1.00000000      1.00000000      1.00000000      1.00000000      1.00000000      1.00000000      1.00000000      1.00000000
      1.00000000      1.00000000      1.00000000      1.00000000      1.00000000      1.00000000      1.00000000      1.00000000      1.00000000      1.00000000      1.00000000      1.00000000      1.00000000      1.00000000      1.00000000      1.00000000      1.00000000      1.00000000      1.00000000      1.00000000
      1.00000000      1.00000000      1.00000000      1.00000000</v>
    <i name="NUPDOWN">     -1.00000000</i>
    <i type="logical" name="LSORBIT"> F  </i>
    <v name="SAXIS">      0.00000000      0.00000000      1.00000000</v>
    <i type="logical" name="LSPIRAL"> F  </i>
    <v name="QSPIRAL">      0.00000000      0.00000000      0.00000000</v>
    <i type="logical" name="LZEROZ"> F  </i>
   </separator>
   <separator name="electronic exchange-correlation" >
    <i type="logical" name="LASPH"> F  </i>
    <i type="logical" name="LMETAGGA"> F  </i>
   </separator>
   <separator name="electronic convergence" >
    <i type="int" name="NELM">    60</i>
    <i type="int" name="NELMDL">    -5</i>
    <i type="int" name="NELMIN">     2</i>
    <i name="ENINI">    400.00000000</i>
    <separator name="electronic convergence detail" >
     <i type="logical" name="LDIAG"> T  </i>
     <i type="logical" name="LSUBROT"> F  </i>
     <i name="WEIMIN">      0.00000000</i>
     <i name="EBREAK">      0.00000000</i>
     <i name="DEPER">      0.30000000</i>
     <i type="int" name="NRMM">     4</i>
     <i name="TIME">      0.40000000</i>
    </separator>
   </separator>
   <separator name="electronic mixer" >
    <i name="AMIX">      0.40000000</i>
    <i name="BMIX">      1.00000000</i>
    <i name="AMIN">      0.10000000</i>
    <i name="AMIX_MAG">      1.60000000</i>
    <i name="BMIX_MAG">      1.00000000</i>
    <separator name="electronic mixer details" >
     <i type="int" name="IMIX">     4</i>
     <i type="logical" name="MIXFIRST"> F  </i>
     <i type="int" name="MAXMIX">   -45</i>
     <i name="WC">    100.00000000</i>
     <i type="int" name="INIMIX">     1</i>
     <i type="int" name="MIXPRE">     1</i>
     <i type="int" name="MREMOVE">     5</i>
    </separator>
   </separator>
   <separator name="electronic dipolcorrection" >
    <i type="logical" name="LDIPOL"> F  </i>
    <i type="logical" name="LMONO"> F  </i>
    <i type="int" name="IDIPOL">     0</i>
    <i name="EPSILON">      1.00000000</i>
    <v name="DIPOL">   -100.00000000   -100.00000000   -100.00000000</v>
    <i name="EFIELD">      0.00000000</i>
   </separator>
  </separator>
  <separator name="grids" >
   <i type="int" name="NGX">    48</i>
   <i type="int" name="NGY">    48</i>
   <i type="int" name="NGZ">    48</i>
   <i type="int" name="NGXF">    96</i>
   <i type="int" name="NGYF">    96</i>
   <i type="int" name="NGZF">    96</i>
   <i type="logical" name="ADDGRID"> F  </i>
  </separator>
  <separator name="ionic" >
   <i type="int" name="NSW">     0</i>
   <i type="int" name="IBRION">    -1</i>
   <i type="int" name="MDALGO">     0</i>
   <i type="int" name="ISIF">     3</i>
   <i name="PSTRESS">      0.00000000</i>
   <i name="EDIFFG">      0.00000010</i>
   <i type="int" name="NFREE">     0</i>
   <i name="POTIM">      0.50000000</i>
   <i name="SMASS">     -3.00000000</i>
   <i name="SCALEE">      1.00000000</i>
  </separator>
  <separator name="ionic md" >
   <i name="TEBEG">      0.00010000</i>
   <i name="TEEND">      0.00010000</i>
   <i type="int" name="NBLOCK">     1</i>
   <i type="int" name="KBLOCK">     1</i>
   <i type="int" name="NPACO">   256</i>
   <i name="APACO">     16.00000000</i>
  </separator>
  <separator name="symmetry" >
   <i type="int" name="ISYM">     0</i>
   <i name="SYMPREC">      0.00001000</i>
  </separator>
  <separator name="dos" >
   <i type="int" name="LORBIT">     0</i>
   <v name="RWIGS">     -1.00000000     -1.00000000</v>
   <i type="int" name="NEDOS">   301</i>
   <i name="EMIN">     10.00000000</i>
   <i name="EMAX">    -10.00000000</i>
   <i name="EFERMI">      0.00000000</i>
  </separator>
  <separator name="writing" >
   <i type="int" name="NWRITE">     2</i>
   <i type="logical" name="LWAVE"> F  </i>
   <i type="logical" name="LDOWNSAMPLE"> F  </i>
   <i type="logical" name="LCHARG"> F  </i>
   <i type="logical" name="LPARD"> F  </i>
   <i type="logical" name="LVTOT"> F  </i>
   <i type="logical" name="LVHAR"> F  </i>
   <i type="logical" name="LELF"> F  </i>
   <i type="logical" name="LOPTICS"> F  </i>
   <v name="STM">      0.00000000      0.00000000      0.00000000      0.00000000      0.00000000      0.00000000      0.00000000</v>
  </separator>
  <separator name="performance" >
   <i type="int" name="NPAR">     8</i>
   <i type="int" name="NSIM">     4</i>
   <i type="int" name="NBLK">    -1</i>
   <i type="logical" name="LPLANE"> T  </i>
   <i type="logical" name="LSCALAPACK"> T  </i>
   <i type="logical" name="LSCAAWARE"> F  </i>
   <i type="logical" name="LSCALU"> F  </i>
   <i type="logical" name="LASYNC"> F  </i>
   <i type="logical" name="LORBITALREAL"> F  </i>
  </separator>
  <separator name="miscellaneous" >
   <i type="int" name="IDIOT">     3</i>
   <i type="int" name="ISPECIAL">     0</i>
   <i type="logical" name="LMUSIC"> F  </i>
   <v name="POMASS">     12.01100000     28.08500000</v>
   <v name="DARWINR">      0.00000000      0.00000000</v>
   <v name="DARWINV">      1.00000000      1.00000000</v>
   <i type="logical" name="LCORR"> T  </i>
  </separator>
  <i type="logical" name="GGA_COMPAT"> T  </i>
  <i type="logical" name="LBERRY"> F  </i>
  <i type="int" name="ICORELEVEL">     0</i>
  <i type="logical" name="LDAU"> F  </i>
  <i type="int" name="I_CONSTRAINED_M">     0</i>
  <separator name="electronic exchange-correlation" >
   <i type="string" name="GGA">PE</i>
   <i type="int" name="VOSKOWN">     0</i>
   <i type="logical" name="LHFCALC"> F  </i>
   <i type="string" name="PRECFOCK"></i>
   <i type="logical" name="LSYMGRAD"> F  </i>
   <i type="logical" name="LHFONE"> F  </i>
   <i type="logical" name="LRHFCALC"> F  </i>
   <i type="logical" name="LTHOMAS"> F  </i>
   <i type="logical" name="LMODELHF"> F  </i>
   <i name="ENCUT4O">     -1.00000000</i>
   <i type="int" name="EXXOEP">     0</i>
   <i type="int" name="FOURORBIT">     0</i>
   <i name="AEXX">      0.00000000</i>
   <i name="HFALPHA">      0.00000000</i>
   <i name="MCALPHA">      0.00000000</i>
   <i name="ALDAX">      1.00000000</i>
   <i name="AGGAX">      1.00000000</i>
   <i name="ALDAC">      1.00000000</i>
   <i name="AGGAC">      1.00000000</i>
   <i type="int" name="NKREDX">     1</i>
   <i type="int" name="NKREDY">     1</i>
   <i type="int" name="NKREDZ">     1</i>
   <i type="logical" name="SHIFTRED"> F  </i>
   <i type="logical" name="ODDONLY"> F  </i>
   <i type="logical" name="EVENONLY"> F  </i>
   <i type="int" name="LMAXFOCK">     0</i>
   <i type="int" name="NMAXFOCKAE">     0</i>
   <i type="logical" name="LFOCKAEDFT"> F  </i>
   <i name="HFSCREEN">      0.00000000</i>
   <i name="HFSCREENC">      0.00000000</i>
   <i type="int" name="NBANDSGWLOW">     0</i>
  </separator>
  <separator name="vdW DFT" >
   <i type="logical" name="LUSE_VDW"> F  </i>
   <i name="Zab_VDW">     -0.84910000</i>
   <i name="PARAM1">      0.12340000</i>
   <i name="PARAM2">      1.00000000</i>
   <i name="PARAM3">      0.00000000</i>
  </separator>
  <separator name="model GW" >
   <i type="int" name="MODEL_GW">     0</i>
   <i name="MODEL_EPS0">      6.26613487</i>
   <i name="MODEL_ALPHA">      1.00000000</i>
  </separator>
  <separator name="linear response parameters" >
   <i type="logical" name="LEPSILON"> F  </i>
   <i type="logical" name="LRPA"> F  </i>
   <i type="logical" name="LNABLA"> F  </i>
   <i type="logical" name="LVEL"> F  </i>
   <i type="int" name="KINTER">     0</i>
   <i name="CSHIFT">      0.10000000</i>
   <i name="OMEGAMAX">     -1.00000000</i>
   <i name="DEG_THRESHOLD">      0.00200000</i>
   <i name="RTIME">     -0.10000000</i>
   <i name="WPLASMAI">      0.00000000</i>
   <v name="DFIELD">      0.00000000      0.00000000      0.00000000</v>
   <v name="WPLASMA">      0.00000000      0.00000000      0.00000000      0.00000000      0.00000000      0.00000000      0.00000000      0.00000000      0.00000000</v>
  </separator>
  <separator name="orbital magnetization" >
   <i type="logical" name="NUCIND"> F  </i>
   <v name="MAGPOS">      0.00000000      0.00000000      0.00000000</v>
   <i type="logical" name="LNICSALL"> T  </i>
   <i type="logical" name="ORBITALMAG"> F  </i>
   <i type="logical" name="LMAGBLOCH"> F  </i>
   <i type="logical" name="LCHIMAG"> F  </i>
   <i type="logical" name="LGAUGE"> T  </i>
   <i type="int" name="MAGATOM">     0</i>
   <v name="MAGDIPOL">      0.00000000      0.00000000      0.00000000</v>
   <v name="AVECCONST">      0.00000000      0.00000000      0.00000000</v>
  </separator>
  <separator name="response functions" >
   <i type="logical" name="LADDER"> F  </i>
   <i type="logical" name="LRPAFORCE"> F  </i>
   <i type="logical" name="LFXC"> F  </i>
   <i type="logical" name="LHARTREE"> T  </i>
   <i type="int" name="IBSE">     0</i>
   <v type="int" name="KPOINT">    -1     0     0     0</v>
   <i type="logical" name="LTCTE"> F  </i>
   <i type="logical" name="LTETE"> F  </i>
   <i type="logical" name="LTRIPLET"> F  </i>
   <i type="logical" name="LFXCEPS"> F  </i>
   <i type="logical" name="LFXHEG"> F  </i>
   <i type="int" name="NATURALO">     2</i>
   <i type="logical" name="L2ORDER"> F  </i>
   <i type="logical" name="LMP2LT"> F  </i>
   <i type="logical" name="LUSEW"> F  </i>
   <i name="ENCUTGW">     -2.00000000</i>
   <i name="ENCUTGWSOFT">     -2.00000000</i>
   <i name="ENCUTLF">     -1.00000000</i>
   <i type="int" name="LMAXMP2">    -1</i>
   <i name="SCISSOR">      0.00000000</i>
   <i type="int" name="NOMEGA">     0</i>
   <i type="int" name="NOMEGAR">     0</i>
   <i type="int" name="NBANDSGW">    -1</i>
   <i type="int" name="NBANDSO">    -1</i>
   <i type="int" name="NBANDSV">    -1</i>
   <i type="int" name="NELM">    60</i>
   <i type="int" name="NELMHF">     1</i>
   <i type="int" name="DIM">     3</i>
   <i type="int" name="ANTIRES">     0</i>
   <i name="OMEGAMAX">    -30.00000000</i>
   <i name="OMEGAMIN">    -30.00000000</i>
   <i name="OMEGATL">   -200.00000000</i>
   <i type="int" name="OMEGAGRID">   140</i>
   <i name="CSHIFT">     -0.10000000</i>
   <i type="logical" name="SELFENERGY"> F  </i>
   <i type="logical" name="LSPECTRAL"> F  </i>
   <i type="logical" name="LSPECTRALGW"> F  </i>
   <i type="logical" name="LSINGLES"> F  </i>
   <i type="logical" name="LFERMIGW"> F  </i>
   <i type="logical" name="ODDONLYGW"> F  </i>
   <i type="logical" name="EVENONLYGW"> F  </i>
   <i type="int" name="NKREDLFX">     1</i>
   <i type="int" name="NKREDLFY">     1</i>
   <i type="int" name="NKREDLFZ">     1</i>
   <i type="int" name="MAXMEM">  2800</i>
   <i type="int" name="TELESCOPE">     0</i>
   <i type="int" name="TAUPAR">     1</i>
   <i type="int" name="OMEGAPAR">    -1</i>
   <i name="LAMBDA">      1.00000000</i>
  </separator>
  <separator name="External order field" >
   <i name="OFIELD_KAPPA">      0.00000000</i>
   <v name="OFIELD_K">      0.00000000      0.00000000      0.00000000</v>
   <i name="OFIELD_Q6_NEAR">      0.00000000</i>
   <i name="OFIELD_Q6_FAR">      0.00000000</i>
   <i name="OFIELD_A">      0.00000000</i>
  </separator>
 </parameters>
 <atominfo>
  <atoms>      64 </atoms>
  <types>       2 </types>
  <array name="atoms" >
   <dimension dim="1">ion</dimension>
   <field type="string">element</field>
   <field type="int">atomtype</field>
   <set>
    <rc><c>C </c><c>   1</c></rc>
    <rc><c>C </c><c>   1</c></rc>
    <rc><c>C </c><c>   1</c></rc>
    <rc><c>C </c><c>   1</c></rc>
    <rc><c>C </c><c>   1</c></rc>
    <rc><c>C </c><c>   1</c></rc>
    <rc><c>C </c><c>   1</c></rc>
    <rc><c>C </c><c>   1</c></rc>
    <rc><c>C </c><c>   1</c></rc>
    <rc><c>C </c><c>   1</c></rc>
    <rc><c>C </c><c>   1</c></rc>
    <rc><c>C </c><c>   1</c></rc>
    <rc><c>C </c><c>   1</c></rc>
    <rc><c>C </c><c>   1</c></rc>
    <rc><c>C </c><c>   1</c></rc>
    <rc><c>C </c><c>   1</c></rc>
    <rc><c>C </c><c>   1</c></rc>
    <rc><c>C </c><c>   1</c></rc>
    <rc><c>C </c><c>   1</c></rc>
    <rc><c>C </c><c>   1</c></rc>
    <rc><c>C </c><c>   1</c></rc>
    <rc><c>C </c><c>   1</c></rc>
    <rc><c>C </c><c>   1</c></rc>
    <rc><c>C </c><c>   1</c></rc>
    <rc><c>C </c><c>   1</c></rc>
    <rc><c>C </c><c>   1</c></rc>
    <rc><c>C </c><c>   1</c></rc>
    <rc><c>C </c><c>   1</c></rc>
    <rc><c>C </c><c>   1</c></rc>
    <rc><c>C </c><c>   1</c></rc>
    <rc><c>C </c><c>   1</c></rc>
    <rc><c>C </c><c>   1</c></rc>
    <rc><c>Si</c><c>   2</c></rc>
    <rc><c>Si</c><c>   2</c></rc>
    <rc><c>Si</c><c>   2</c></rc>
    <rc><c>Si</c><c>   2</c></rc>
    <rc><c>Si</c><c>   2</c></rc>
    <rc><c>Si</c><c>   2</c></rc>
    <rc><c>Si</c><c>   2</c></rc>
    <rc><c>Si</c><c>   2</c></rc>
    <rc><c>Si</c><c>   2</c></rc>
    <rc><c>Si</c><c>   2</c></rc>
    <rc><c>Si</c><c>   2</c></rc>
    <rc><c>Si</c><c>   2</c></rc>
    <rc><c>Si</c><c>   2</c></rc>
    <rc><c>Si</c><c>   2</c></rc>
    <rc><c>Si</c><c>   2</c></rc>
    <rc><c>Si</c><c>   2</c></rc>
    <rc><c>Si</c><c>   2</c></rc>
    <rc><c>Si</c><c>   2</c></rc>
    <rc><c>Si</c><c>   2</c></rc>
    <rc><c>Si</c><c>   2</c></rc>
    <rc><c>Si</c><c>   2</c></rc>
    <rc><c>Si</c><c>   2</c></rc>
    <rc><c>Si</c><c>   2</c></rc>
    <rc><c>Si</c><c>   2</c></rc>
    <rc><c>Si</c><c>   2</c></rc>
    <rc><c>Si</c><c>   2</c></rc>
    <rc><c>Si</c><c>   2</c></rc>
    <rc><c>Si</c><c>   2</c></rc>
    <rc><c>Si</c><c>   2</c></rc>
    <rc><c>Si</c><c>   2</c></rc>
    <rc><c>Si</c><c>   2</c></rc>
    <rc><c>Si</c><c>   2</c></rc>
   </set>
  </array>
  <array name="atomtypes" >
   <dimension dim="1">type</dimension>
   <field type="int">atomspertype</field>
   <field type="string">element</field>
   <field>mass</field>
   <field>valence</field>
   <field type="string">pseudopotential</field>
   <set>
    <rc><c>  32</c><c>C </c><c>     12.01100000</c><c>      4.00000000</c><c>  PAW_PBE C 08Apr2002                   </c></rc>
    <rc><c>  32</c><c>Si</c><c>     28.08500000</c><c>      4.00000000</c><c>  PAW_PBE Si 05Jan2001                  </c></rc>
   </set>
  </array>
 </atominfo>
 <structure name="initialpos" >
  <crystal>
   <varray name="basis" >
    <v>       8.74331558       0.00000000       0.00000000 </v>
    <v>       0.00000000       8.74331558       0.00000000 </v>
    <v>       0.00000000       0.00000000       8.74331558 </v>
   </varray>
   <i name="volume">    668.38771987 </i>
   <varray name="rec_basis" >
    <v>       0.11437309       0.00000000       0.00000000 </v>
    <v>       0.00000000       0.11437309       0.00000000 </v>
    <v>       0.00000000       0.00000000       0.11437309 </v>
   </varray>
  </crystal>
  <varray name="positions" >
   <v>       0.12500000       0.12500000       0.12500000 </v>
   <v>       0.12500000       0.37500000       0.37500000 </v>
   <v>       0.37500000       0.12500000       0.37500000 </v>
   <v>       0.37500000       0.37500000       0.12500000 </v>
   <v>       0.12500000       0.12500000       0.62500000 </v>
   <v>       0.12500000       0.37500000       0.87500000 </v>
   <v>       0.37500000       0.12500000       0.87500000 </v>
   <v>       0.37500000       0.37500000       0.62500000 </v>
   <v>       0.12500000       0.62500000       0.12500000 </v>
   <v>       0.12500000       0.87500000       0.37500000 </v>
   <v>       0.37500000       0.62500000       0.37500000 </v>
   <v>       0.37500000       0.87500000       0.12500000 </v>
   <v>       0.12500000       0.62500000       0.62500000 </v>
   <v>       0.12500000       0.87500000       0.87500000 </v>
   <v>       0.37500000       0.62500000       0.87500000 </v>
   <v>       0.37500000       0.87500000       0.62500000 </v>
   <v>       0.62500000       0.12500000       0.12500000 </v>
   <v>       0.62500000       0.37500000       0.37500000 </v>
   <v>       0.87500000       0.12500000       0.37500000 </v>
   <v>       0.87500000       0.37500000       0.12500000 </v>
   <v>       0.62500000       0.12500000       0.62500000 </v>
   <v>       0.62500000       0.37500000       0.87500000 </v>
   <v>       0.87500000       0.12500000       0.87500000 </v>
   <v>       0.87500000       0.37500000       0.62500000 </v>
   <v>       0.62500000       0.62500000       0.12500000 </v>
   <v>       0.62500000       0.87500000       0.37500000 </v>
   <v>       0.87500000       0.62500000       0.37500000 </v>
   <v>       0.87500000       0.87500000       0.12500000 </v>
   <v>       0.62500000       0.62500000       0.62500000 </v>
   <v>       0.62500000       0.87500000       0.87500000 </v>
   <v>       0.87500000       0.62500000       0.87500000 </v>
   <v>       0.87500000       0.87500000       0.62500000 </v>
   <v>       0.00000000       0.00000000       0.00000000 </v>
   <v>       0.00000000       0.25000000       0.25000000 </v>
   <v>       0.25000000       0.00000000       0.25000000 </v>
   <v>       0.25000000       0.25000000       0.00000000 </v>
   <v>       0.00000000       0.00000000       0.50000000 </v>
   <v>       0.00000000       0.25000000       0.75000000 </v>
   <v>       0.25000000       0.00000000       0.75000000 </v>
   <v>       0.25000000       0.25000000       0.50000000 </v>
   <v>       0.00000000       0.50000000       0.00000000 </v>
   <v>       0.00000000       0.75000000       0.25000000 </v>
   <v>       0.25000000       0.50000000       0.25000000 </v>
   <v>       0.25000000       0.75000000       0.00000000 </v>
   <v>       0.00000000       0.50000000       0.50000000 </v>
   <v>       0.00000000       0.75000000       0.75000000 </v>
   <v>       0.25000000       0.50000000       0.75000000 </v>
   <v>       0.25000000       0.75000000       0.50000000 </v>
   <v>       0.50000000       0.00000000       0.00000000 </v>
   <v>       0.50000000       0.25000000       0.25000000 </v>
   <v>       0.75000000       0.00000000       0.25000000 </v>
   <v>       0.75000000       0.25000000       0.00000000 </v>
   <v>       0.50000000       0.00000000       0.50000000 </v>
   <v>       0.50000000       0.25000000       0.75000000 </v>
   <v>       0.75000000       0.00000000       0.75000000 </v>
   <v>       0.75000000       0.25000000       0.50000000 </v>
   <v>       0.50000000       0.50000000       0.00000000 </v>
   <v>       0.50000000       0.75000000       0.25000000 </v>
   <v>       0.75000000       0.50000000       0.25000000 </v>
   <v>       0.75000000       0.75000000       0.00000000 </v>
   <v>       0.50000000       0.50000000       0.50000000 </v>
   <v>       0.50000000       0.75000000       0.75000000 </v>
   <v>       0.75000000       0.50000000       0.75000000 </v>
   <v>       0.75000000       0.75000000       0.50000000 </v>
  </varray>
 </structure>
 <calculation>
  <scstep>
   <time name="dav">    5.08    5.12</time>
   <time name="total">    5.12    5.18</time>
   <energy>
    <i name="alphaZ">    354.85177120 </i>
    <i name="ewald">  -9084.70117892 </i>
    <i name="hartreedc">   -670.19729988 </i>
    <i name="XCdc">    145.81931225 </i>
    <i name="pawpsdc">   6292.66707184 </i>
    <i name="pawaedc">  -5747.90303932 </i>
    <i name="eentropy">     -0.00484305 </i>
    <i name="bandstr">   1374.44552588 </i>
    <i name="atom">   8006.17504320 </i>
    <i name="e_fr_energy">    671.15236319 </i>
    <i name="e_wo_entrp">    671.15720624 </i>
    <i name="e_0_energy">    671.15397754 </i>
   </energy>
  </scstep>
  <scstep>
   <time name="dav">    5.64    5.65</time>
   <time name="total">    5.64    5.65</time>
   <energy>
    <i name="e_fr_energy">   -463.14133004 </i>
    <i name="e_wo_entrp">   -463.15468864 </i>
    <i name="e_0_energy">   -463.14578291 </i>
   </energy>
  </scstep>
  <scstep>
   <time name="dav">    5.55    5.56</time>
   <time name="total">    5.55    5.56</time>
   <energy>
    <i name="e_fr_energy">   -538.39017180 </i>
    <i name="e_wo_entrp">   -538.40864015 </i>
    <i name="e_0_energy">   -538.39632791 </i>
   </energy>
  </scstep>
  <scstep>
   <time name="dav">    5.57    5.57</time>
   <time name="total">    5.57    5.58</time>
   <energy>
    <i name="e_fr_energy">   -540.04793482 </i>
    <i name="e_wo_entrp">   -540.06719789 </i>
    <i name="e_0_energy">   -540.05435585 </i>
   </energy>
  </scstep>
  <scstep>
   <time name="dav">    5.43    5.44</time>
   <time name="total">    5.56    5.57</time>
   <energy>
    <i name="e_fr_energy">   -540.09346417 </i>
    <i name="e_wo_entrp">   -540.11269806 </i>
    <i name="e_0_energy">   -540.09987547 </i>
   </energy>
  </scstep>
  <scstep>
   <time name="dav">    5.26    5.26</time>
   <time name="total">    5.67    5.68</time>
   <energy>
    <i name="e_fr_energy">   -483.70334861 </i>
    <i name="e_wo_entrp">   -483.71320328 </i>
    <i name="e_0_energy">   -483.70663350 </i>
   </energy>
  </scstep>
  <scstep>
   <time name="dav">    5.69    5.69</time>
   <time name="total">    5.86    5.86</time>
   <energy>
    <i name="e_fr_energy">   -482.32358798 </i>
    <i name="e_wo_entrp">   -482.33252330 </i>
    <i name="e_0_energy">   -482.32656642 </i>
   </energy>
  </scstep>
  <scstep>
   <time name="dav">    5.23    5.23</time>
   <time name="total">    5.36    5.36</time>
   <energy>
    <i name="e_fr_energy">   -482.09756489 </i>
    <i name="e_wo_entrp">   -482.10670038 </i>
    <i name="e_0_energy">   -482.10061006 </i>
   </energy>
  </scstep>
  <scstep>
   <time name="dav">    5.34    5.34</time>
   <time name="total">    5.50    5.50</time>
   <energy>
    <i name="e_fr_energy">   -482.08186184 </i>
    <i name="e_wo_entrp">   -482.09089902 </i>
    <i name="e_0_energy">   -482.08487423 </i>
   </energy>
  </scstep>
  <scstep>
   <time name="dav">    5.33    5.33</time>
   <time name="total">    5.48    5.48</time>
   <energy>
    <i name="e_fr_energy">   -482.08559333 </i>
    <i name="e_wo_entrp">   -482.09461555 </i>
    <i name="e_0_energy">   -482.08860074 </i>
   </energy>
  </scstep>
  <scstep>
   <time name="dav">    5.13    5.13</time>
   <time name="total">    5.28    5.28</time>
   <energy>
    <i name="e_fr_energy">   -482.08608399 </i>
    <i name="e_wo_entrp">   -482.09511296 </i>
    <i name="e_0_energy">   -482.08909365 </i>
   </energy>
  </scstep>
  <scstep>
   <time name="dav">    5.35    5.35</time>
   <time name="total">    5.54    5.54</time>
   <energy>
    <i name="e_fr_energy">   -482.08610483 </i>
    <i name="e_wo_entrp">   -482.09513402 </i>
    <i name="e_0_energy">   -482.08911456 </i>
   </energy>
  </scstep>
  <scstep>
   <time name="dav">    5.53    5.53</time>
   <time name="total">    5.68    5.68</time>
   <energy>
    <i name="e_fr_energy">   -482.08611030 </i>
    <i name="e_wo_entrp">   -482.09513942 </i>
    <i name="e_0_energy">   -482.08912001 </i>
   </energy>
  </scstep>
  <scstep>
   <time name="dav">    5.88    5.88</time>
   <time name="total">    6.03    6.03</time>
   <energy>
    <i name="e_fr_energy">   -482.08611213 </i>
    <i name="e_wo_entrp">   -482.09514119 </i>
    <i name="e_0_energy">   -482.08912182 </i>
   </energy>
  </scstep>
  <scstep>
   <time name="dav">    5.20    5.20</time>
   <time name="total">    5.36    5.36</time>
   <energy>
    <i name="e_fr_energy">   -482.08611273 </i>
    <i name="e_wo_entrp">   -482.09514173 </i>
    <i name="e_0_energy">   -482.08912240 </i>
   </energy>
  </scstep>
  <scstep>
   <time name="dav">    3.76    3.76</time>
   <time name="total">    3.92    3.92</time>
   <energy>
    <i name="e_fr_energy">   -482.08611283 </i>
    <i name="e_wo_entrp">   -482.09514181 </i>
    <i name="e_0_energy">   -482.08912249 </i>
   </energy>
  </scstep>
  <scstep>
   <time name="dav">    3.38    3.38</time>
   <time name="total">    3.54    3.54</time>
   <energy>
    <i name="e_fr_energy">   -482.08611238 </i>
    <i name="e_wo_entrp">   -482.09514136 </i>
    <i name="e_0_energy">   -482.08912204 </i>
   </energy>
  </scstep>
  <scstep>
   <time name="dav">    3.34    3.34</time>
   <time name="total">    3.51    3.51</time>
   <energy>
    <i name="e_fr_energy">   -482.08611240 </i>
    <i name="e_wo_entrp">   -482.09514137 </i>
    <i name="e_0_energy">   -482.08912205 </i>
   </energy>
  </scstep>
  <scstep>
   <time name="dav">    3.33    3.33</time>
   <time name="total">    3.35    3.35</time>
   <energy>
    <i name="alphaZ">    354.85177120 </i>
    <i name="ewald">  -9084.70117892 </i>
    <i name="hartreedc">  -1022.64167734 </i>
    <i name="XCdc">    179.26024306 </i>
    <i name="pawpsdc">  32972.53174011 </i>
    <i name="pawaedc"> -32433.44374483 </i>
    <i name="eentropy">      0.00902897 </i>
    <i name="bandstr">    545.87266216 </i>
    <i name="atom">   8006.17504320 </i>
    <i name="e_fr_energy">   -482.08611239 </i>
    <i name="e_wo_entrp">   -482.09514136 </i>
    <i name="e_0_energy">   -482.08912205 </i>
   </energy>
  </scstep>
  <structure>
   <crystal>
    <varray name="basis" >
     <v>       8.74331558       0.00000000       0.00000000 </v>
     <v>       0.00000000       8.74331558       0.00000000 </v>
     <v>       0.00000000       0.00000000       8.74331558 </v>
    </varray>
    <i name="volume">    668.38771987 </i>
    <varray name="rec_basis" >
     <v>       0.11437309       0.00000000       0.00000000 </v>
     <v>       0.00000000       0.11437309       0.00000000 </v>
     <v>       0.00000000       0.00000000       0.11437309 </v>
    </varray>
   </crystal>
   <varray name="positions" >
    <v>       0.12500000       0.12500000       0.12500000 </v>
    <v>       0.12500000       0.37500000       0.37500000 </v>
    <v>       0.37500000       0.12500000       0.37500000 </v>
    <v>       0.37500000       0.37500000       0.12500000 </v>
    <v>       0.12500000       0.12500000       0.62500000 </v>
    <v>       0.12500000       0.37500000       0.87500000 </v>
    <v>       0.37500000       0.12500000       0.87500000 </v>
    <v>       0.37500000       0.37500000       0.62500000 </v>
    <v>       0.12500000       0.62500000       0.12500000 </v>
    <v>       0.12500000       0.87500000       0.37500000 </v>
    <v>       0.37500000       0.62500000       0.37500000 </v>
    <v>       0.37500000       0.87500000       0.12500000 </v>
    <v>       0.12500000       0.62500000       0.62500000 </v>
    <v>       0.12500000       0.87500000       0.87500000 </v>
    <v>       0.37500000       0.62500000       0.87500000 </v>
    <v>       0.37500000       0.87500000       0.62500000 </v>
    <v>       0.62500000       0.12500000       0.12500000 </v>
    <v>       0.62500000       0.37500000       0.37500000 </v>
    <v>       0.87500000       0.12500000       0.37500000 </v>
    <v>       0.87500000       0.37500000       0.12500000 </v>
    <v>       0.62500000       0.12500000       0.62500000 </v>
    <v>       0.62500000       0.37500000       0.87500000 </v>
    <v>       0.87500000       0.12500000       0.87500000 </v>
    <v>       0.87500000       0.37500000       0.62500000 </v>
    <v>       0.62500000       0.62500000       0.12500000 </v>
    <v>       0.62500000       0.87500000       0.37500000 </v>
    <v>       0.87500000       0.62500000       0.37500000 </v>
    <v>       0.87500000       0.87500000       0.12500000 </v>
    <v>       0.62500000       0.62500000       0.62500000 </v>
    <v>       0.62500000       0.87500000       0.87500000 </v>
    <v>       0.87500000       0.62500000       0.87500000 </v>
    <v>       0.87500000       0.87500000       0.62500000 </v>
    <v>       0.00000000       0.00000000       0.00000000 </v>
    <v>       0.00000000       0.25000000       0.25000000 </v>
    <v>       0.25000000       0.00000000       0.25000000 </v>
    <v>       0.25000000       0.25000000       0.00000000 </v>
    <v>       0.00000000       0.00000000       0.50000000 </v>
    <v>       0.00000000       0.25000000       0.75000000 </v>
    <v>       0.25000000       0.00000000       0.75000000 </v>
    <v>       0.25000000       0.25000000       0.50000000 </v>
    <v>       0.00000000       0.50000000       0.00000000 </v>
    <v>       0.00000000       0.75000000       0.25000000 </v>
    <v>       0.25000000       0.50000000       0.25000000 </v>
    <v>       0.25000000       0.75000000       0.00000000 </v>
    <v>       0.00000000       0.50000000       0.50000000 </v>
    <v>       0.00000000       0.75000000       0.75000000 </v>
    <v>       0.25000000       0.50000000       0.75000000 </v>
    <v>       0.25000000       0.75000000       0.50000000 </v>
    <v>       0.50000000       0.00000000       0.00000000 </v>
    <v>       0.50000000       0.25000000       0.25000000 </v>
    <v>       0.75000000       0.00000000       0.25000000 </v>
    <v>       0.75000000       0.25000000       0.00000000 </v>
    <v>       0.50000000       0.00000000       0.50000000 </v>
    <v>       0.50000000       0.25000000       0.75000000 </v>
    <v>       0.75000000       0.00000000       0.75000000 </v>
    <v>       0.75000000       0.25000000       0.50000000 </v>
    <v>       0.50000000       0.50000000       0.00000000 </v>
    <v>       0.50000000       0.75000000       0.25000000 </v>
    <v>       0.75000000       0.50000000       0.25000000 </v>
    <v>       0.75000000       0.75000000       0.00000000 </v>
    <v>       0.50000000       0.50000000       0.50000000 </v>
    <v>       0.50000000       0.75000000       0.75000000 </v>
    <v>       0.75000000       0.50000000       0.75000000 </v>
    <v>       0.75000000       0.75000000       0.50000000 </v>
   </varray>
  </structure>
  <varray name="forces" >
   <v>      -0.00000012      -0.00000001      -0.00000073 </v>
   <v>       0.00000037      -0.00000044       0.00000026 </v>
   <v>       0.00000002      -0.00000055      -0.00000066 </v>
   <v>      -0.00000029       0.00000047      -0.00000097 </v>
   <v>       0.00000007       0.00000031       0.00000080 </v>
   <v>      -0.00000011       0.00000066      -0.00000012 </v>
   <v>      -0.00000075       0.00000060       0.00000047 </v>
   <v>      -0.00000042       0.00000004       0.00000102 </v>
   <v>       0.00000088       0.00000049      -0.00000128 </v>
   <v>       0.00000050      -0.00000008      -0.00000076 </v>
   <v>      -0.00000017       0.00000045      -0.00000045 </v>
   <v>      -0.00000010      -0.00000021      -0.00000009 </v>
   <v>      -0.00000040      -0.00000072       0.00000121 </v>
   <v>      -0.00000032      -0.00000012       0.00000051 </v>
   <v>      -0.00000018      -0.00000057       0.00000069 </v>
   <v>      -0.00000010      -0.00000053      -0.00000001 </v>
   <v>      -0.00000071      -0.00000023      -0.00000040 </v>
   <v>      -0.00000049       0.00000031      -0.00000054 </v>
   <v>       0.00000022      -0.00000042       0.00000029 </v>
   <v>      -0.00000007       0.00000004      -0.00000161 </v>
   <v>       0.00000072       0.00000006       0.00000020 </v>
   <v>       0.00000009       0.00000036       0.00000031 </v>
   <v>       0.00000037       0.00000044      -0.00000003 </v>
   <v>       0.00000084       0.00000014       0.00000152 </v>
   <v>      -0.00000010      -0.00000019      -0.00000082 </v>
   <v>      -0.00000032       0.00000021      -0.00000012 </v>
   <v>      -0.00000025       0.00000060      -0.00000012 </v>
   <v>       0.00000059      -0.00000040      -0.00000059 </v>
   <v>      -0.00000028       0.00000041       0.00000090 </v>
   <v>       0.00000008      -0.00000085       0.00000030 </v>
   <v>       0.00000058      -0.00000063      -0.00000000 </v>
   <v>      -0.00000021       0.00000019       0.00000064 </v>
   <v>       0.00000047       0.00000039      -0.00000002 </v>
   <v>       0.00000008      -0.00000119       0.00000002 </v>
   <v>      -0.00000019      -0.00000058      -0.00000075 </v>
   <v>      -0.00000088       0.00000092       0.00000024 </v>
   <v>       0.00000038       0.00000069       0.00000005 </v>
   <v>       0.00000096       0.00000015       0.00000009 </v>
   <v>      -0.00000122       0.00000044      -0.00000046 </v>
   <v>      -0.00000060      -0.00000064       0.00000099 </v>
   <v>       0.00000023       0.00000044      -0.00000175 </v>
   <v>       0.00000061       0.00000040      -0.00000008 </v>
   <v>       0.00000086       0.00000030      -0.00000041 </v>
   <v>       0.00000025       0.00000049       0.00000048 </v>
   <v>       0.00000011       0.00000001       0.00000097 </v>
   <v>      -0.00000044      -0.00000083       0.00000074 </v>
   <v>      -0.00000094      -0.00000046       0.00000055 </v>
   <v>      -0.00000023      -0.00000042      -0.00000057 </v>
   <v>      -0.00000012      -0.00000068       0.00000088 </v>
   <v>      -0.00000017       0.00000029      -0.00000075 </v>
   <v>      -0.00000052      -0.00000018       0.00000101 </v>
   <v>      -0.00000065       0.00000007      -0.00000079 </v>
   <v>       0.00000130      -0.00000043      -0.00000049 </v>
   <v>       0.00000095       0.00000048       0.00000002 </v>
   <v>      -0.00000009       0.00000031      -0.00000018 </v>
   <v>       0.00000033      -0.00000065       0.00000021 </v>
   <v>       0.00000024      -0.00000065       0.00000001 </v>
   <v>      -0.00000004       0.00000073       0.00000034 </v>
   <v>      -0.00000063       0.00000027      -0.00000029 </v>
   <v>       0.00000048      -0.00000095      -0.00000073 </v>
   <v>      -0.00000028       0.00000057      -0.00000013 </v>
   <v>       0.00000040      -0.00000027       0.00000013 </v>
   <v>       0.00000041       0.00000025       0.00000108 </v>
   <v>      -0.00000100       0.00000088      -0.00000025 </v>
  </varray>
  <varray name="stress" >
   <v>       0.00016534      -0.00000051      -0.00000098 </v>
   <v>      -0.00000052       0.00016621       0.00000030 </v>
   <v>      -0.00000097       0.00000029       0.00016420 </v>
  </varray>
  <energy>
   <i name="e_fr_energy">   -482.08611239 </i>
   <i name="e_wo_entrp">   -482.08912205 </i>
   <i name="e_0_energy">      0.00902897 </i>
  </energy>
  <time name="totalsc">  105.94  106.06</time>
  <eigenvalues>
   <array>
    <dimension dim="1">band</dimension>
    <dimension dim="2">kpoint</dimension>
    <dimension dim="3">spin</dimension>
    <field>eigene</field>
    <field>occ</field>
    <set>
     <set comment="spin 1">
      <set comment="kpoint 1">
       <r>   -7.3302    1.0000 </r>
       <r>   -5.7452    1.0000 </r>
       <r>   -5.7452    1.0000 </r>
       <r>   -5.7452    1.0000 </r>
       <r>   -5.7452    1.0000 </r>
       <r>   -5.7452    1.0000 </r>
       <r>   -5.7452    1.0000 </r>
       <r>   -4.3320    1.0000 </r>
       <r>   -4.3320    1.0000 </r>
       <r>   -4.3320    1.0000 </r>
       <r>   -4.3320    1.0000 </r>
       <r>   -4.3320    1.0000 </r>
       <r>   -4.3320    1.0000 </r>
       <r>   -4.3320    1.0000 </r>
       <r>   -4.3320    1.0000 </r>
       <r>   -4.3320    1.0000 </r>
       <r>   -4.3320    1.0000 </r>
       <r>   -4.3320    1.0000 </r>
       <r>   -4.3320    1.0000 </r>
       <r>   -3.8004    1.0000 </r>
       <r>   -3.8004    1.0000 </r>
       <r>   -3.8004    1.0000 </r>
       <r>   -3.8004    1.0000 </r>
       <r>   -2.3598    1.0000 </r>
       <r>   -2.3598    1.0000 </r>
       <r>   -2.3597    1.0000 </r>
       <r>   -2.1339    1.0000 </r>
       <r>   -2.1339    1.0000 </r>
       <r>   -2.1339    1.0000 </r>
       <r>   -2.1339    1.0000 </r>
       <r>   -2.1339    1.0000 </r>
       <r>   -2.1339    1.0000 </r>
       <r>   -0.4821    1.0000 </r>
       <r>   -0.4821    1.0000 </r>
       <r>   -0.4821    1.0000 </r>
       <r>   -0.4821    1.0000 </r>
       <r>    0.2358    1.0000 </r>
       <r>    0.2358    1.0000 </r>
       <r>    0.2358    1.0000 </r>
       <r>    0.9949    1.0000 </r>
       <r>    0.9949    1.0000 </r>
       <r>    0.9949    1.0000 </r>
       <r>    0.9949    1.0000 </r>
       <r>    0.9949    1.0000 </r>
       <r>    0.9949    1.0000 </r>
       <r>    2.0801    1.0000 </r>
       <r>    2.0801    1.0000 </r>
       <r>    2.0801    1.0000 </r>
       <r>    2.0801    1.0000 </r>
       <r>    2.0801    1.0000 </r>
       <r>    2.0801    1.0000 </r>
       <r>    2.0801    1.0000 </r>
       <r>    2.0801    1.0000 </r>
       <r>    2.0801    1.0000 </r>
       <r>    2.0801    1.0000 </r>
       <r>    2.0801    1.0000 </r>
       <r>    2.0801    1.0000 </r>
       <r>    3.0568    1.0000 </r>
       <r>    3.0568    1.0000 </r>
       <r>    3.0568    1.0000 </r>
       <r>    3.0568    1.0000 </r>
       <r>    3.0568    1.0000 </r>
       <r>    3.0568    1.0000 </r>
       <r>    3.3517    1.0000 </r>
       <r>    3.3517    1.0000 </r>
       <r>    3.3517    1.0000 </r>
       <r>    3.3517    1.0000 </r>
       <r>    3.3517    1.0000 </r>
       <r>    3.3517    1.0000 </r>
       <r>    3.6910    1.0000 </r>
       <r>    3.6910    1.0000 </r>
       <r>    3.6910    1.0000 </r>
       <r>    3.6910    1.0000 </r>
       <r>    3.6910    1.0000 </r>
       <r>    3.6910    1.0000 </r>
       <r>    3.6910    1.0000 </r>
       <r>    3.6910    1.0000 </r>
       <r>    3.6910    1.0000 </r>
       <r>    3.6910    1.0000 </r>
       <r>    3.6910    1.0000 </r>
       <r>    3.6910    1.0000 </r>
       <r>    4.6523    1.0000 </r>
       <r>    4.6523    1.0000 </r>
       <r>    4.6523    1.0000 </r>
       <r>    4.6523    1.0000 </r>
       <r>    4.6523    1.0000 </r>
       <r>    4.6523    1.0000 </r>
       <r>    4.8337    1.0000 </r>
       <r>    4.8337    1.0000 </r>
       <r>    4.8337    1.0000 </r>
       <r>    4.8337    1.0000 </r>
       <r>    4.8337    1.0000 </r>
       <r>    4.8337    1.0000 </r>
       <r>    6.0810    1.0000 </r>
       <r>    6.0810    1.0000 </r>
       <r>    6.0810    1.0000 </r>
       <r>    6.0810    1.0000 </r>
       <r>    6.0810    1.0000 </r>
       <r>    6.0810    1.0000 </r>
       <r>    6.0810    1.0000 </r>
       <r>    6.0810    1.0000 </r>
       <r>    6.0810    1.0000 </r>
       <r>    6.0810    1.0000 </r>
       <r>    6.0810    1.0000 </r>
       <r>    6.0810    1.0000 </r>
       <r>    6.8232    1.0000 </r>
       <r>    6.8232    1.0000 </r>
       <r>    6.8232    1.0000 </r>
       <r>    6.8232    1.0000 </r>
       <r>    6.8232    1.0000 </r>
       <r>    6.8232    1.0000 </r>
       <r>    6.8232    1.0000 </r>
       <r>    6.8232    1.0000 </r>
       <r>    6.8232    1.0000 </r>
       <r>    6.8232    1.0000 </r>
       <r>    6.8232    1.0000 </r>
       <r>    6.8232    1.0000 </r>
       <r>    6.9507    1.0000 </r>
       <r>    6.9507    1.0000 </r>
       <r>    6.9507    1.0000 </r>
       <r>    6.9507    1.0000 </r>
       <r>    6.9507    1.0000 </r>
       <r>    6.9507    1.0000 </r>
       <r>    6.9507    1.0000 </r>
       <r>    6.9507    1.0000 </r>
       <r>    8.0087    0.9303 </r>
       <r>    8.0087    0.9303 </r>
       <r>    8.0087    0.9303 </r>
       <r>    9.3678   -0.0000 </r>
       <r>    9.3678   -0.0000 </r>
       <r>    9.3678   -0.0000 </r>
       <r>   12.0300   -0.0000 </r>
       <r>   12.0300   -0.0000 </r>
       <r>   12.0300   -0.0000 </r>
       <r>   12.0300   -0.0000 </r>
       <r>   12.0300   -0.0000 </r>
       <r>   12.0300   -0.0000 </r>
       <r>   12.2936   -0.0000 </r>
       <r>   12.2936   -0.0000 </r>
       <r>   12.2936   -0.0000 </r>
       <r>   13.2001   -0.0000 </r>
       <r>   13.2001   -0.0000 </r>
       <r>   13.2001   -0.0000 </r>
       <r>   13.2001   -0.0000 </r>
       <r>   13.2001   -0.0000 </r>
       <r>   13.2001   -0.0000 </r>
       <r>   13.3491   -0.0000 </r>
       <r>   13.3491   -0.0000 </r>
       <r>   13.3491   -0.0000 </r>
       <r>   13.3491   -0.0000 </r>
       <r>   13.4996   -0.0000 </r>
       <r>   13.4996   -0.0000 </r>
       <r>   13.4996   -0.0000 </r>
       <r>   13.4996   -0.0000 </r>
       <r>   13.4996   -0.0000 </r>
       <r>   13.4996   -0.0000 </r>
       <r>   13.4996   -0.0000 </r>
       <r>   13.4996   -0.0000 </r>
       <r>   13.4996   -0.0000 </r>
       <r>   13.4996   -0.0000 </r>
       <r>   13.4996   -0.0000 </r>
       <r>   13.4996   -0.0000 </r>
       <r>   14.1199    0.0000 </r>
       <r>   14.3034    0.0000 </r>
       <r>   14.3034    0.0000 </r>
       <r>   14.3034    0.0000 </r>
       <r>   14.3034    0.0000 </r>
       <r>   14.3034    0.0000 </r>
      </set>
      <set comment="kpoint 2">
       <r>   -7.1505    1.0000 </r>
       <r>   -6.6164    1.0000 </r>
       <r>   -5.5801    1.0000 </r>
       <r>   -5.5801    1.0000 </r>
       <r>   -5.5801    1.0000 </r>
       <r>   -5.5801    1.0000 </r>
       <r>   -5.0958    1.0000 </r>
       <r>   -5.0958    1.0000 </r>
       <r>   -5.0958    1.0000 </r>
       <r>   -5.0958    1.0000 </r>
       <r>   -4.5780    1.0000 </r>
       <r>   -4.2225    1.0000 </r>
       <r>   -4.2225    1.0000 </r>
       <r>   -4.2225    1.0000 </r>
       <r>   -4.2225    1.0000 </r>
       <r>   -3.9621    1.0000 </r>
       <r>   -3.9621    1.0000 </r>
       <r>   -3.9621    1.0000 </r>
       <r>   -3.9621    1.0000 </r>
       <r>   -3.3897    1.0000 </r>
       <r>   -3.3897    1.0000 </r>
       <r>   -3.3897    1.0000 </r>
       <r>   -3.3897    1.0000 </r>
       <r>   -3.2347    1.0000 </r>
       <r>   -2.5128    1.0000 </r>
       <r>   -2.5128    1.0000 </r>
       <r>   -2.5128    1.0000 </r>
       <r>   -2.5128    1.0000 </r>
       <r>   -2.3071    1.0000 </r>
       <r>   -2.3071    1.0000 </r>
       <r>   -2.1945    1.0000 </r>
       <r>   -2.1945    1.0000 </r>
       <r>   -0.0157    1.0000 </r>
       <r>   -0.0157    1.0000 </r>
       <r>   -0.0157    1.0000 </r>
       <r>   -0.0157    1.0000 </r>
       <r>    0.3764    1.0000 </r>
       <r>    0.3764    1.0000 </r>
       <r>    0.7359    1.0000 </r>
       <r>    0.7359    1.0000 </r>
       <r>    1.0640    1.0000 </r>
       <r>    1.0640    1.0000 </r>
       <r>    1.0640    1.0000 </r>
       <r>    1.0640    1.0000 </r>
       <r>    1.1062    1.0000 </r>
       <r>    1.1062    1.0000 </r>
       <r>    1.1062    1.0000 </r>
       <r>    1.1062    1.0000 </r>
       <r>    1.2431    1.0000 </r>
       <r>    1.4054    1.0000 </r>
       <r>    1.4054    1.0000 </r>
       <r>    1.4054    1.0000 </r>
       <r>    1.4054    1.0000 </r>
       <r>    2.7196    1.0000 </r>
       <r>    2.7196    1.0000 </r>
       <r>    2.7196    1.0000 </r>
       <r>    2.7196    1.0000 </r>
       <r>    2.9495    1.0000 </r>
       <r>    2.9830    1.0000 </r>
       <r>    2.9830    1.0000 </r>
       <r>    2.9830    1.0000 </r>
       <r>    2.9830    1.0000 </r>
       <r>    3.0094    1.0000 </r>
       <r>    3.0094    1.0000 </r>
       <r>    3.0094    1.0000 </r>
       <r>    3.0094    1.0000 </r>
       <r>    3.5290    1.0000 </r>
       <r>    3.5290    1.0000 </r>
       <r>    3.6531    1.0000 </r>
       <r>    3.6531    1.0000 </r>
       <r>    4.0341    1.0000 </r>
       <r>    4.0341    1.0000 </r>
       <r>    4.0341    1.0000 </r>
       <r>    4.0341    1.0000 </r>
       <r>    4.3707    1.0000 </r>
       <r>    4.3707    1.0000 </r>
       <r>    4.3906    1.0000 </r>
       <r>    4.3906    1.0000 </r>
       <r>    4.4508    1.0000 </r>
       <r>    4.4508    1.0000 </r>
       <r>    4.4508    1.0000 </r>
       <r>    4.4508    1.0000 </r>
       <r>    4.6537    1.0000 </r>
       <r>    4.6537    1.0000 </r>
       <r>    4.6537    1.0000 </r>
       <r>    4.6537    1.0000 </r>
       <r>    4.8145    1.0000 </r>
       <r>    4.8145    1.0000 </r>
       <r>    4.8145    1.0000 </r>
       <r>    4.8145    1.0000 </r>
       <r>    4.9808    1.0000 </r>
       <r>    4.9808    1.0000 </r>
       <r>    5.4100    1.0000 </r>
       <r>    5.4100    1.0000 </r>
       <r>    5.6202    1.0000 </r>
       <r>    5.6202    1.0000 </r>
       <r>    5.6202    1.0000 </r>
       <r>    5.6202    1.0000 </r>
       <r>    5.8949    1.0000 </r>
       <r>    5.8949    1.0000 </r>
       <r>    5.8949    1.0000 </r>
       <r>    5.8949    1.0000 </r>
       <r>    6.2006    1.0000 </r>
       <r>    6.2812    1.0000 </r>
       <r>    6.2812    1.0000 </r>
       <r>    6.2812    1.0000 </r>
       <r>    6.2812    1.0000 </r>
       <r>    6.4797    1.0000 </r>
       <r>    6.4797    1.0000 </r>
       <r>    6.4797    1.0000 </r>
       <r>    6.4797    1.0000 </r>
       <r>    6.8543    1.0000 </r>
       <r>    6.8543    1.0000 </r>
       <r>    6.8543    1.0000 </r>
       <r>    6.8543    1.0000 </r>
       <r>    6.9015    1.0000 </r>
       <r>    6.9015    1.0000 </r>
       <r>    6.9078    1.0000 </r>
       <r>    6.9078    1.0000 </r>
       <r>    6.9078    1.0000 </r>
       <r>    6.9078    1.0000 </r>
       <r>    6.9191    1.0000 </r>
       <r>    6.9191    1.0000 </r>
       <r>    6.9191    1.0000 </r>
       <r>    6.9191    1.0000 </r>
       <r>    7.4557    1.0000 </r>
       <r>    7.6654    1.0023 </r>
       <r>    7.6654    1.0023 </r>
       <r>    9.6910   -0.0000 </r>
       <r>   10.2131   -0.0000 </r>
       <r>   10.2131   -0.0000 </r>
       <r>   10.6338   -0.0000 </r>
       <r>   11.9861   -0.0000 </r>
       <r>   11.9861   -0.0000 </r>
       <r>   12.5123   -0.0000 </r>
       <r>   12.6724   -0.0000 </r>
       <r>   12.6724   -0.0000 </r>
       <r>   12.6724   -0.0000 </r>
       <r>   12.6724   -0.0000 </r>
       <r>   13.0020   -0.0000 </r>
       <r>   13.0020   -0.0000 </r>
       <r>   13.0020   -0.0000 </r>
       <r>   13.0020   -0.0000 </r>
       <r>   13.0927   -0.0000 </r>
       <r>   13.0927   -0.0000 </r>
       <r>   13.1018   -0.0000 </r>
       <r>   13.1018   -0.0000 </r>
       <r>   13.1018   -0.0000 </r>
       <r>   13.1018   -0.0000 </r>
       <r>   13.1817   -0.0000 </r>
       <r>   13.4970   -0.0000 </r>
       <r>   13.6580    0.0000 </r>
       <r>   13.6580    0.0000 </r>
       <r>   13.6580    0.0000 </r>
       <r>   13.6580    0.0000 </r>
       <r>   13.6956    0.0000 </r>
       <r>   13.6956    0.0000 </r>
       <r>   13.6956    0.0000 </r>
       <r>   13.6956    0.0000 </r>
       <r>   13.9732    0.0000 </r>
       <r>   13.9732    0.0000 </r>
       <r>   13.9732    0.0000 </r>
       <r>   13.9732    0.0000 </r>
       <r>   14.4870    0.0000 </r>
       <r>   14.8959    0.0000 </r>
       <r>   14.9067    0.0000 </r>
       <r>   14.9074    0.0000 </r>
       <r>   14.9106    0.0000 </r>
      </set>
      <set comment="kpoint 3">
       <r>   -7.1505    1.0000 </r>
       <r>   -6.6164    1.0000 </r>
       <r>   -5.5801    1.0000 </r>
       <r>   -5.5801    1.0000 </r>
       <r>   -5.5801    1.0000 </r>
       <r>   -5.5801    1.0000 </r>
       <r>   -5.0958    1.0000 </r>
       <r>   -5.0958    1.0000 </r>
       <r>   -5.0958    1.0000 </r>
       <r>   -5.0958    1.0000 </r>
       <r>   -4.5780    1.0000 </r>
       <r>   -4.2225    1.0000 </r>
       <r>   -4.2225    1.0000 </r>
       <r>   -4.2225    1.0000 </r>
       <r>   -4.2225    1.0000 </r>
       <r>   -3.9621    1.0000 </r>
       <r>   -3.9621    1.0000 </r>
       <r>   -3.9621    1.0000 </r>
       <r>   -3.9621    1.0000 </r>
       <r>   -3.3897    1.0000 </r>
       <r>   -3.3897    1.0000 </r>
       <r>   -3.3897    1.0000 </r>
       <r>   -3.3897    1.0000 </r>
       <r>   -3.2347    1.0000 </r>
       <r>   -2.5128    1.0000 </r>
       <r>   -2.5128    1.0000 </r>
       <r>   -2.5128    1.0000 </r>
       <r>   -2.5128    1.0000 </r>
       <r>   -2.3071    1.0000 </r>
       <r>   -2.3071    1.0000 </r>
       <r>   -2.1945    1.0000 </r>
       <r>   -2.1945    1.0000 </r>
       <r>   -0.0157    1.0000 </r>
       <r>   -0.0157    1.0000 </r>
       <r>   -0.0157    1.0000 </r>
       <r>   -0.0157    1.0000 </r>
       <r>    0.3764    1.0000 </r>
       <r>    0.3764    1.0000 </r>
       <r>    0.7359    1.0000 </r>
       <r>    0.7359    1.0000 </r>
       <r>    1.0640    1.0000 </r>
       <r>    1.0640    1.0000 </r>
       <r>    1.0640    1.0000 </r>
       <r>    1.0640    1.0000 </r>
       <r>    1.1062    1.0000 </r>
       <r>    1.1062    1.0000 </r>
       <r>    1.1062    1.0000 </r>
       <r>    1.1062    1.0000 </r>
       <r>    1.2431    1.0000 </r>
       <r>    1.4054    1.0000 </r>
       <r>    1.4054    1.0000 </r>
       <r>    1.4054    1.0000 </r>
       <r>    1.4054    1.0000 </r>
       <r>    2.7196    1.0000 </r>
       <r>    2.7196    1.0000 </r>
       <r>    2.7196    1.0000 </r>
       <r>    2.7196    1.0000 </r>
       <r>    2.9495    1.0000 </r>
       <r>    2.9830    1.0000 </r>
       <r>    2.9830    1.0000 </r>
       <r>    2.9830    1.0000 </r>
       <r>    2.9830    1.0000 </r>
       <r>    3.0094    1.0000 </r>
       <r>    3.0094    1.0000 </r>
       <r>    3.0094    1.0000 </r>
       <r>    3.0094    1.0000 </r>
       <r>    3.5290    1.0000 </r>
       <r>    3.5290    1.0000 </r>
       <r>    3.6531    1.0000 </r>
       <r>    3.6531    1.0000 </r>
       <r>    4.0341    1.0000 </r>
       <r>    4.0341    1.0000 </r>
       <r>    4.0341    1.0000 </r>
       <r>    4.0341    1.0000 </r>
       <r>    4.3707    1.0000 </r>
       <r>    4.3707    1.0000 </r>
       <r>    4.3906    1.0000 </r>
       <r>    4.3906    1.0000 </r>
       <r>    4.4508    1.0000 </r>
       <r>    4.4508    1.0000 </r>
       <r>    4.4508    1.0000 </r>
       <r>    4.4508    1.0000 </r>
       <r>    4.6537    1.0000 </r>
       <r>    4.6537    1.0000 </r>
       <r>    4.6537    1.0000 </r>
       <r>    4.6537    1.0000 </r>
       <r>    4.8145    1.0000 </r>
       <r>    4.8145    1.0000 </r>
       <r>    4.8145    1.0000 </r>
       <r>    4.8145    1.0000 </r>
       <r>    4.9808    1.0000 </r>
       <r>    4.9808    1.0000 </r>
       <r>    5.4100    1.0000 </r>
       <r>    5.4100    1.0000 </r>
       <r>    5.6202    1.0000 </r>
       <r>    5.6202    1.0000 </r>
       <r>    5.6202    1.0000 </r>
       <r>    5.6202    1.0000 </r>
       <r>    5.8949    1.0000 </r>
       <r>    5.8949    1.0000 </r>
       <r>    5.8949    1.0000 </r>
       <r>    5.8949    1.0000 </r>
       <r>    6.2006    1.0000 </r>
       <r>    6.2812    1.0000 </r>
       <r>    6.2812    1.0000 </r>
       <r>    6.2812    1.0000 </r>
       <r>    6.2812    1.0000 </r>
       <r>    6.4797    1.0000 </r>
       <r>    6.4797    1.0000 </r>
       <r>    6.4797    1.0000 </r>
       <r>    6.4797    1.0000 </r>
       <r>    6.8543    1.0000 </r>
       <r>    6.8543    1.0000 </r>
       <r>    6.8543    1.0000 </r>
       <r>    6.8543    1.0000 </r>
       <r>    6.9015    1.0000 </r>
       <r>    6.9015    1.0000 </r>
       <r>    6.9078    1.0000 </r>
       <r>    6.9078    1.0000 </r>
       <r>    6.9078    1.0000 </r>
       <r>    6.9078    1.0000 </r>
       <r>    6.9191    1.0000 </r>
       <r>    6.9191    1.0000 </r>
       <r>    6.9191    1.0000 </r>
       <r>    6.9191    1.0000 </r>
       <r>    7.4557    1.0000 </r>
       <r>    7.6654    1.0023 </r>
       <r>    7.6654    1.0023 </r>
       <r>    9.6910   -0.0000 </r>
       <r>   10.2131   -0.0000 </r>
       <r>   10.2131   -0.0000 </r>
       <r>   10.6338   -0.0000 </r>
       <r>   11.9861   -0.0000 </r>
       <r>   11.9861   -0.0000 </r>
       <r>   12.5123   -0.0000 </r>
       <r>   12.6724   -0.0000 </r>
       <r>   12.6724   -0.0000 </r>
       <r>   12.6724   -0.0000 </r>
       <r>   12.6724   -0.0000 </r>
       <r>   13.0020   -0.0000 </r>
       <r>   13.0020   -0.0000 </r>
       <r>   13.0020   -0.0000 </r>
       <r>   13.0020   -0.0000 </r>
       <r>   13.0927   -0.0000 </r>
       <r>   13.0927   -0.0000 </r>
       <r>   13.1018   -0.0000 </r>
       <r>   13.1018   -0.0000 </r>
       <r>   13.1018   -0.0000 </r>
       <r>   13.1018   -0.0000 </r>
       <r>   13.1817   -0.0000 </r>
       <r>   13.4970   -0.0000 </r>
       <r>   13.6580    0.0000 </r>
       <r>   13.6580    0.0000 </r>
       <r>   13.6580    0.0000 </r>
       <r>   13.6580    0.0000 </r>
       <r>   13.6956    0.0000 </r>
       <r>   13.6956    0.0000 </r>
       <r>   13.6956    0.0000 </r>
       <r>   13.6956    0.0000 </r>
       <r>   13.9732    0.0000 </r>
       <r>   13.9732    0.0000 </r>
       <r>   13.9732    0.0000 </r>
       <r>   13.9732    0.0000 </r>
       <r>   14.4870    0.0000 </r>
       <r>   14.8914    0.0000 </r>
       <r>   14.9067    0.0000 </r>
       <r>   14.9083    0.0000 </r>
       <r>   14.9125    0.0000 </r>
      </set>
      <set comment="kpoint 4">
       <r>   -6.9721    1.0000 </r>
       <r>   -6.4423    1.0000 </r>
       <r>   -6.4423    1.0000 </r>
       <r>   -5.9271    1.0000 </r>
       <r>   -5.4188    1.0000 </r>
       <r>   -5.4188    1.0000 </r>
       <r>   -4.9488    1.0000 </r>
       <r>   -4.9488    1.0000 </r>
       <r>   -4.9488    1.0000 </r>
       <r>   -4.9488    1.0000 </r>
       <r>   -4.5341    1.0000 </r>
       <r>   -4.5341    1.0000 </r>
       <r>   -4.4310    1.0000 </r>
       <r>   -4.4310    1.0000 </r>
       <r>   -4.0099    1.0000 </r>
       <r>   -4.0099    1.0000 </r>
       <r>   -3.5046    1.0000 </r>
       <r>   -3.5046    1.0000 </r>
       <r>   -3.3808    1.0000 </r>
       <r>   -3.3808    1.0000 </r>
       <r>   -3.3808    1.0000 </r>
       <r>   -3.3808    1.0000 </r>
       <r>   -3.1267    1.0000 </r>
       <r>   -3.1267    1.0000 </r>
       <r>   -2.8424    1.0000 </r>
       <r>   -2.8424    1.0000 </r>
       <r>   -2.7433    1.0000 </r>
       <r>   -2.7270    1.0000 </r>
       <r>   -2.7270    1.0000 </r>
       <r>   -2.3188    1.0000 </r>
       <r>   -2.3188    1.0000 </r>
       <r>   -2.2929    1.0000 </r>
       <r>   -0.1599    1.0000 </r>
       <r>   -0.1599    1.0000 </r>
       <r>    0.5022    1.0000 </r>
       <r>    0.5666    1.0000 </r>
       <r>    0.5666    1.0000 </r>
       <r>    0.5666    1.0000 </r>
       <r>    0.5666    1.0000 </r>
       <r>    0.6616    1.0000 </r>
       <r>    0.6616    1.0000 </r>
       <r>    0.8033    1.0000 </r>
       <r>    0.8033    1.0000 </r>
       <r>    0.8370    1.0000 </r>
       <r>    0.8370    1.0000 </r>
       <r>    0.9862    1.0000 </r>
       <r>    1.2223    1.0000 </r>
       <r>    1.2223    1.0000 </r>
       <r>    1.2575    1.0000 </r>
       <r>    1.2575    1.0000 </r>
       <r>    2.0638    1.0000 </r>
       <r>    2.0638    1.0000 </r>
       <r>    2.0675    1.0000 </r>
       <r>    2.0675    1.0000 </r>
       <r>    2.0675    1.0000 </r>
       <r>    2.0675    1.0000 </r>
       <r>    2.4134    1.0000 </r>
       <r>    2.5840    1.0000 </r>
       <r>    2.5840    1.0000 </r>
       <r>    2.6935    1.0000 </r>
       <r>    2.6935    1.0000 </r>
       <r>    3.2401    1.0000 </r>
       <r>    3.2401    1.0000 </r>
       <r>    3.2907    1.0000 </r>
       <r>    3.3153    1.0000 </r>
       <r>    3.3153    1.0000 </r>
       <r>    3.5242    1.0000 </r>
       <r>    3.5242    1.0000 </r>
       <r>    3.9276    1.0000 </r>
       <r>    3.9276    1.0000 </r>
       <r>    4.0624    1.0000 </r>
       <r>    4.0624    1.0000 </r>
       <r>    4.0624    1.0000 </r>
       <r>    4.0624    1.0000 </r>
       <r>    4.1040    1.0000 </r>
       <r>    4.3098    1.0000 </r>
       <r>    4.3098    1.0000 </r>
       <r>    4.4861    1.0000 </r>
       <r>    4.4861    1.0000 </r>
       <r>    4.6750    1.0000 </r>
       <r>    4.6750    1.0000 </r>
       <r>    4.9043    1.0000 </r>
       <r>    4.9043    1.0000 </r>
       <r>    4.9210    1.0000 </r>
       <r>    4.9210    1.0000 </r>
       <r>    4.9311    1.0000 </r>
       <r>    4.9311    1.0000 </r>
       <r>    5.1016    1.0000 </r>
       <r>    5.3015    1.0000 </r>
       <r>    5.3015    1.0000 </r>
       <r>    5.4196    1.0000 </r>
       <r>    5.4196    1.0000 </r>
       <r>    5.4683    1.0000 </r>
       <r>    5.4683    1.0000 </r>
       <r>    5.5823    1.0000 </r>
       <r>    5.5984    1.0000 </r>
       <r>    5.5984    1.0000 </r>
       <r>    5.6031    1.0000 </r>
       <r>    5.6031    1.0000 </r>
       <r>    5.6031    1.0000 </r>
       <r>    5.6031    1.0000 </r>
       <r>    5.8407    1.0000 </r>
       <r>    6.0235    1.0000 </r>
       <r>    6.0235    1.0000 </r>
       <r>    6.0235    1.0000 </r>
       <r>    6.0235    1.0000 </r>
       <r>    6.2074    1.0000 </r>
       <r>    6.2074    1.0000 </r>
       <r>    6.2701    1.0000 </r>
       <r>    6.2701    1.0000 </r>
       <r>    6.4227    1.0000 </r>
       <r>    6.4227    1.0000 </r>
       <r>    6.4837    1.0000 </r>
       <r>    6.4837    1.0000 </r>
       <r>    6.5326    1.0000 </r>
       <r>    6.6632    1.0000 </r>
       <r>    6.6632    1.0000 </r>
       <r>    6.7009    1.0000 </r>
       <r>    6.7009    1.0000 </r>
       <r>    6.8636    1.0000 </r>
       <r>    6.8636    1.0000 </r>
       <r>    6.8636    1.0000 </r>
       <r>    6.8636    1.0000 </r>
       <r>    7.2994    1.0000 </r>
       <r>    7.4769    1.0000 </r>
       <r>    7.4769    1.0000 </r>
       <r>    7.6251    1.0010 </r>
       <r>    7.9546    1.0104 </r>
       <r>   10.4409   -0.0000 </r>
       <r>   10.4995   -0.0000 </r>
       <r>   10.4995   -0.0000 </r>
       <r>   11.3547   -0.0000 </r>
       <r>   11.3547   -0.0000 </r>
       <r>   11.6696   -0.0000 </r>
       <r>   11.6696   -0.0000 </r>
       <r>   11.8142   -0.0000 </r>
       <r>   12.2086   -0.0000 </r>
       <r>   12.2086   -0.0000 </r>
       <r>   12.8845   -0.0000 </r>
       <r>   12.8845   -0.0000 </r>
       <r>   12.8846   -0.0000 </r>
       <r>   12.8846   -0.0000 </r>
       <r>   13.1113   -0.0000 </r>
       <r>   13.1113   -0.0000 </r>
       <r>   13.1737   -0.0000 </r>
       <r>   13.1737   -0.0000 </r>
       <r>   13.1737   -0.0000 </r>
       <r>   13.1737   -0.0000 </r>
       <r>   13.2945   -0.0000 </r>
       <r>   13.2945   -0.0000 </r>
       <r>   13.5691   -0.0000 </r>
       <r>   13.5691   -0.0000 </r>
       <r>   13.6095    0.0000 </r>
       <r>   13.6095    0.0000 </r>
       <r>   13.7665    0.0000 </r>
       <r>   13.7665    0.0000 </r>
       <r>   13.7665    0.0000 </r>
       <r>   13.7665    0.0000 </r>
       <r>   13.9077    0.0000 </r>
       <r>   13.9077    0.0000 </r>
       <r>   13.9935    0.0000 </r>
       <r>   14.0856    0.0000 </r>
       <r>   14.0856    0.0000 </r>
       <r>   14.6894    0.0000 </r>
       <r>   14.7671    0.0000 </r>
       <r>   14.7671    0.0000 </r>
       <r>   14.9814    0.0000 </r>
       <r>   15.0317    0.0000 </r>
      </set>
      <set comment="kpoint 5">
       <r>   -6.9721    1.0000 </r>
       <r>   -6.4423    1.0000 </r>
       <r>   -6.4423    1.0000 </r>
       <r>   -5.9271    1.0000 </r>
       <r>   -5.4188    1.0000 </r>
       <r>   -5.4188    1.0000 </r>
       <r>   -4.9488    1.0000 </r>
       <r>   -4.9488    1.0000 </r>
       <r>   -4.9488    1.0000 </r>
       <r>   -4.9488    1.0000 </r>
       <r>   -4.5341    1.0000 </r>
       <r>   -4.5341    1.0000 </r>
       <r>   -4.4310    1.0000 </r>
       <r>   -4.4310    1.0000 </r>
       <r>   -4.0099    1.0000 </r>
       <r>   -4.0099    1.0000 </r>
       <r>   -3.5046    1.0000 </r>
       <r>   -3.5046    1.0000 </r>
       <r>   -3.3808    1.0000 </r>
       <r>   -3.3808    1.0000 </r>
       <r>   -3.3808    1.0000 </r>
       <r>   -3.3808    1.0000 </r>
       <r>   -3.1267    1.0000 </r>
       <r>   -3.1267    1.0000 </r>
       <r>   -2.8424    1.0000 </r>
       <r>   -2.8424    1.0000 </r>
       <r>   -2.7433    1.0000 </r>
       <r>   -2.7270    1.0000 </r>
       <r>   -2.7270    1.0000 </r>
       <r>   -2.3188    1.0000 </r>
       <r>   -2.3188    1.0000 </r>
       <r>   -2.2929    1.0000 </r>
       <r>   -0.1599    1.0000 </r>
       <r>   -0.1599    1.0000 </r>
       <r>    0.5022    1.0000 </r>
       <r>    0.5666    1.0000 </r>
       <r>    0.5666    1.0000 </r>
       <r>    0.5666    1.0000 </r>
       <r>    0.5666    1.0000 </r>
       <r>    0.6616    1.0000 </r>
       <r>    0.6616    1.0000 </r>
       <r>    0.8033    1.0000 </r>
       <r>    0.8033    1.0000 </r>
       <r>    0.8370    1.0000 </r>
       <r>    0.8370    1.0000 </r>
       <r>    0.9862    1.0000 </r>
       <r>    1.2223    1.0000 </r>
       <r>    1.2223    1.0000 </r>
       <r>    1.2575    1.0000 </r>
       <r>    1.2575    1.0000 </r>
       <r>    2.0638    1.0000 </r>
       <r>    2.0638    1.0000 </r>
       <r>    2.0675    1.0000 </r>
       <r>    2.0675    1.0000 </r>
       <r>    2.0675    1.0000 </r>
       <r>    2.0675    1.0000 </r>
       <r>    2.4134    1.0000 </r>
       <r>    2.5840    1.0000 </r>
       <r>    2.5840    1.0000 </r>
       <r>    2.6935    1.0000 </r>
       <r>    2.6935    1.0000 </r>
       <r>    3.2401    1.0000 </r>
       <r>    3.2401    1.0000 </r>
       <r>    3.2907    1.0000 </r>
       <r>    3.3153    1.0000 </r>
       <r>    3.3153    1.0000 </r>
       <r>    3.5242    1.0000 </r>
       <r>    3.5242    1.0000 </r>
       <r>    3.9276    1.0000 </r>
       <r>    3.9276    1.0000 </r>
       <r>    4.0624    1.0000 </r>
       <r>    4.0624    1.0000 </r>
       <r>    4.0624    1.0000 </r>
       <r>    4.0624    1.0000 </r>
       <r>    4.1040    1.0000 </r>
       <r>    4.3098    1.0000 </r>
       <r>    4.3098    1.0000 </r>
       <r>    4.4861    1.0000 </r>
       <r>    4.4861    1.0000 </r>
       <r>    4.6750    1.0000 </r>
       <r>    4.6750    1.0000 </r>
       <r>    4.9043    1.0000 </r>
       <r>    4.9043    1.0000 </r>
       <r>    4.9210    1.0000 </r>
       <r>    4.9210    1.0000 </r>
       <r>    4.9311    1.0000 </r>
       <r>    4.9311    1.0000 </r>
       <r>    5.1016    1.0000 </r>
       <r>    5.3015    1.0000 </r>
       <r>    5.3015    1.0000 </r>
       <r>    5.4196    1.0000 </r>
       <r>    5.4196    1.0000 </r>
       <r>    5.4683    1.0000 </r>
       <r>    5.4683    1.0000 </r>
       <r>    5.5823    1.0000 </r>
       <r>    5.5984    1.0000 </r>
       <r>    5.5984    1.0000 </r>
       <r>    5.6031    1.0000 </r>
       <r>    5.6031    1.0000 </r>
       <r>    5.6031    1.0000 </r>
       <r>    5.6031    1.0000 </r>
       <r>    5.8407    1.0000 </r>
       <r>    6.0235    1.0000 </r>
       <r>    6.0235    1.0000 </r>
       <r>    6.0235    1.0000 </r>
       <r>    6.0235    1.0000 </r>
       <r>    6.2074    1.0000 </r>
       <r>    6.2074    1.0000 </r>
       <r>    6.2701    1.0000 </r>
       <r>    6.2701    1.0000 </r>
       <r>    6.4227    1.0000 </r>
       <r>    6.4227    1.0000 </r>
       <r>    6.4837    1.0000 </r>
       <r>    6.4837    1.0000 </r>
       <r>    6.5326    1.0000 </r>
       <r>    6.6632    1.0000 </r>
       <r>    6.6632    1.0000 </r>
       <r>    6.7009    1.0000 </r>
       <r>    6.7009    1.0000 </r>
       <r>    6.8636    1.0000 </r>
       <r>    6.8636    1.0000 </r>
       <r>    6.8636    1.0000 </r>
       <r>    6.8636    1.0000 </r>
       <r>    7.2994    1.0000 </r>
       <r>    7.4769    1.0000 </r>
       <r>    7.4769    1.0000 </r>
       <r>    7.6251    1.0010 </r>
       <r>    7.9546    1.0104 </r>
       <r>   10.4409   -0.0000 </r>
       <r>   10.4995   -0.0000 </r>
       <r>   10.4995   -0.0000 </r>
       <r>   11.3547   -0.0000 </r>
       <r>   11.3547   -0.0000 </r>
       <r>   11.6696   -0.0000 </r>
       <r>   11.6696   -0.0000 </r>
       <r>   11.8142   -0.0000 </r>
       <r>   12.2086   -0.0000 </r>
       <r>   12.2086   -0.0000 </r>
       <r>   12.8845   -0.0000 </r>
       <r>   12.8845   -0.0000 </r>
       <r>   12.8846   -0.0000 </r>
       <r>   12.8846   -0.0000 </r>
       <r>   13.1113   -0.0000 </r>
       <r>   13.1113   -0.0000 </r>
       <r>   13.1737   -0.0000 </r>
       <r>   13.1737   -0.0000 </r>
       <r>   13.1737   -0.0000 </r>
       <r>   13.1737   -0.0000 </r>
       <r>   13.2945   -0.0000 </r>
       <r>   13.2945   -0.0000 </r>
       <r>   13.5691   -0.0000 </r>
       <r>   13.5691   -0.0000 </r>
       <r>   13.6095    0.0000 </r>
       <r>   13.6095    0.0000 </r>
       <r>   13.7665    0.0000 </r>
       <r>   13.7665    0.0000 </r>
       <r>   13.7665    0.0000 </r>
       <r>   13.7665    0.0000 </r>
       <r>   13.9077    0.0000 </r>
       <r>   13.9077    0.0000 </r>
       <r>   13.9935    0.0000 </r>
       <r>   14.0856    0.0000 </r>
       <r>   14.0856    0.0000 </r>
       <r>   14.6894    0.0000 </r>
       <r>   14.7671    0.0000 </r>
       <r>   14.7671    0.0000 </r>
       <r>   14.9814    0.0000 </r>
       <r>   15.0305    0.0000 </r>
      </set>
      <set comment="kpoint 6">
       <r>   -7.1505    1.0000 </r>
       <r>   -6.6164    1.0000 </r>
       <r>   -5.5801    1.0000 </r>
       <r>   -5.5801    1.0000 </r>
       <r>   -5.5801    1.0000 </r>
       <r>   -5.5801    1.0000 </r>
       <r>   -5.0958    1.0000 </r>
       <r>   -5.0958    1.0000 </r>
       <r>   -5.0958    1.0000 </r>
       <r>   -5.0958    1.0000 </r>
       <r>   -4.5780    1.0000 </r>
       <r>   -4.2225    1.0000 </r>
       <r>   -4.2225    1.0000 </r>
       <r>   -4.2225    1.0000 </r>
       <r>   -4.2225    1.0000 </r>
       <r>   -3.9621    1.0000 </r>
       <r>   -3.9621    1.0000 </r>
       <r>   -3.9621    1.0000 </r>
       <r>   -3.9621    1.0000 </r>
       <r>   -3.3897    1.0000 </r>
       <r>   -3.3897    1.0000 </r>
       <r>   -3.3897    1.0000 </r>
       <r>   -3.3897    1.0000 </r>
       <r>   -3.2347    1.0000 </r>
       <r>   -2.5128    1.0000 </r>
       <r>   -2.5128    1.0000 </r>
       <r>   -2.5128    1.0000 </r>
       <r>   -2.5128    1.0000 </r>
       <r>   -2.3071    1.0000 </r>
       <r>   -2.3071    1.0000 </r>
       <r>   -2.1945    1.0000 </r>
       <r>   -2.1945    1.0000 </r>
       <r>   -0.0157    1.0000 </r>
       <r>   -0.0157    1.0000 </r>
       <r>   -0.0157    1.0000 </r>
       <r>   -0.0157    1.0000 </r>
       <r>    0.3764    1.0000 </r>
       <r>    0.3764    1.0000 </r>
       <r>    0.7359    1.0000 </r>
       <r>    0.7359    1.0000 </r>
       <r>    1.0640    1.0000 </r>
       <r>    1.0640    1.0000 </r>
       <r>    1.0640    1.0000 </r>
       <r>    1.0640    1.0000 </r>
       <r>    1.1062    1.0000 </r>
       <r>    1.1062    1.0000 </r>
       <r>    1.1062    1.0000 </r>
       <r>    1.1062    1.0000 </r>
       <r>    1.2431    1.0000 </r>
       <r>    1.4054    1.0000 </r>
       <r>    1.4054    1.0000 </r>
       <r>    1.4054    1.0000 </r>
       <r>    1.4054    1.0000 </r>
       <r>    2.7196    1.0000 </r>
       <r>    2.7196    1.0000 </r>
       <r>    2.7196    1.0000 </r>
       <r>    2.7196    1.0000 </r>
       <r>    2.9495    1.0000 </r>
       <r>    2.9830    1.0000 </r>
       <r>    2.9830    1.0000 </r>
       <r>    2.9830    1.0000 </r>
       <r>    2.9830    1.0000 </r>
       <r>    3.0094    1.0000 </r>
       <r>    3.0094    1.0000 </r>
       <r>    3.0094    1.0000 </r>
       <r>    3.0094    1.0000 </r>
       <r>    3.5290    1.0000 </r>
       <r>    3.5290    1.0000 </r>
       <r>    3.6531    1.0000 </r>
       <r>    3.6531    1.0000 </r>
       <r>    4.0341    1.0000 </r>
       <r>    4.0341    1.0000 </r>
       <r>    4.0341    1.0000 </r>
       <r>    4.0341    1.0000 </r>
       <r>    4.3707    1.0000 </r>
       <r>    4.3707    1.0000 </r>
       <r>    4.3906    1.0000 </r>
       <r>    4.3906    1.0000 </r>
       <r>    4.4508    1.0000 </r>
       <r>    4.4508    1.0000 </r>
       <r>    4.4508    1.0000 </r>
       <r>    4.4508    1.0000 </r>
       <r>    4.6537    1.0000 </r>
       <r>    4.6537    1.0000 </r>
       <r>    4.6537    1.0000 </r>
       <r>    4.6537    1.0000 </r>
[...]
      </set>
     </set>
    </set>
   </array>
  </eigenvalues>
  <separator name="orbital magnetization" >
   <v name="MAGDIPOLOUT">      0.00000000      0.00000000      0.00000000</v>
  </separator>
  <dos>
   <i name="efermi">      8.13344817 </i>
   <total>
    <array>
     <dimension dim="1">gridpoints</dimension>
     <dimension dim="2">spin</dimension>
     <field>energy</field>
     <field>total</field>
     <field>integrated</field>
     <set>
      <set comment="spin 1">
       <r>    -9.3302     0.0000     0.0000 </r>
       <r>    -9.2408     0.0000     0.0000 </r>
       <r>    -9.1514     0.0000     0.0000 </r>
       <r>    -9.0620     0.0000     0.0000 </r>
       <r>    -8.9726    -0.0000    -0.0000 </r>
       <r>    -8.8832    -0.0000    -0.0000 </r>
       <r>    -8.7938    -0.0000    -0.0000 </r>
       <r>    -8.7044    -0.0000    -0.0000 </r>
       <r>    -8.6150    -0.0000    -0.0000 </r>
       <r>    -8.5256    -0.0000    -0.0000 </r>
       <r>    -8.4362    -0.0000    -0.0000 </r>
       <r>    -8.3468    -0.0000    -0.0000 </r>
       <r>    -8.2574    -0.0000    -0.0000 </r>
       <r>    -8.1680    -0.0000    -0.0000 </r>
       <r>    -8.0786    -0.0000    -0.0000 </r>
       <r>    -7.9892    -0.0000    -0.0000 </r>
       <r>    -7.8998    -0.0002    -0.0000 </r>
       <r>    -7.8104    -0.0014    -0.0001 </r>
       <r>    -7.7211    -0.0071    -0.0008 </r>
       <r>    -7.6317    -0.0228    -0.0028 </r>
       <r>    -7.5423    -0.0410    -0.0065 </r>
       <r>    -7.4529    -0.0185    -0.0081 </r>
       <r>    -7.3635     0.1458     0.0049 </r>
       <r>    -7.2741     0.6243     0.0607 </r>
       <r>    -7.1847     1.5364     0.1981 </r>
       <r>    -7.0953     2.7761     0.4462 </r>
       <r>    -7.0059     3.9902     0.8029 </r>
       <r>    -6.9165     4.5453     1.2093 </r>
       <r>    -6.8271     4.0891     1.5748 </r>
       <r>    -6.7377     3.1293     1.8546 </r>
       <r>    -6.6483     2.7068     2.0966 </r>
       <r>    -6.5589     4.0053     2.4546 </r>
       <r>    -6.4695     7.0825     3.0878 </r>
       <r>    -6.3801     9.9714     3.9792 </r>
       <r>    -6.2907    10.4970     4.9176 </r>
       <r>    -6.2013     7.9220     5.6259 </r>
       <r>    -6.1119     3.8053     5.9660 </r>
       <r>    -6.0225     1.6915     6.1173 </r>
       <r>    -5.9331     3.3436     6.4162 </r>
       <r>    -5.8437     7.1947     7.0594 </r>
       <r>    -5.7543    10.5703     8.0043 </r>
       <r>    -5.6649    11.7691     9.0565 </r>
       <r>    -5.5755    11.5049    10.0850 </r>
       <r>    -5.4861    11.1676    11.0833 </r>
       <r>    -5.3967    10.1831    11.9937 </r>
       <r>    -5.3073     7.7008    12.6821 </r>
       <r>    -5.2179     5.7981    13.2005 </r>
       <r>    -5.1285     7.9693    13.9129 </r>
       <r>    -5.0391    13.8883    15.1545 </r>
       <r>    -4.9497    17.7992    16.7457 </r>
       <r>    -4.8603    14.2149    18.0165 </r>
       <r>    -4.7709     6.0070    18.5535 </r>
       <r>    -4.6815     1.9504    18.7279 </r>
       <r>    -4.5921     5.5988    19.2284 </r>
       <r>    -4.5027    12.5614    20.3514 </r>
       <r>    -4.4133    17.7956    21.9423 </r>
       <r>    -4.3239    19.9650    23.7271 </r>
       <r>    -4.2345    18.3370    25.3664 </r>
       <r>    -4.1451    14.3704    26.6511 </r>
       <r>    -4.0557    15.3232    28.0210 </r>
       <r>    -3.9663    22.9048    30.0686 </r>
       <r>    -3.8769    26.0815    32.4002 </r>
       <r>    -3.7875    18.9245    34.0921 </r>
       <r>    -3.6981    10.4951    35.0303 </r>
       <r>    -3.6087     9.2368    35.8561 </r>
       <r>    -3.5193    15.0269    37.1994 </r>
       <r>    -3.4299    23.2688    39.2796 </r>
       <r>    -3.3405    25.6286    41.5708 </r>
       <r>    -3.2511    19.2356    43.2904 </r>
       <r>    -3.1617    13.3282    44.4819 </r>
       <r>    -3.0723    14.9470    45.8182 </r>
       <r>    -2.9829    21.4204    47.7331 </r>
       <r>    -2.8935    28.8943    50.3162 </r>
       <r>    -2.8041    32.6698    53.2368 </r>
       <r>    -2.7147    27.2374    55.6718 </r>
       <r>    -2.6254    16.0152    57.1035 </r>
       <r>    -2.5360     8.8868    57.8980 </r>
       <r>    -2.4466     9.6286    58.7588 </r>
       <r>    -2.3572    14.8947    60.0903 </r>
       <r>    -2.2678    18.5191    61.7459 </r>
       <r>    -2.1784    15.6463    63.1447 </r>
       <r>    -2.0890     8.3226    63.8887 </r>
       <r>    -1.9996     2.2792    64.0924 </r>
       <r>    -1.9102    -0.2244    64.0724 </r>
       <r>    -1.8208    -0.5065    64.0271 </r>
       <r>    -1.7314    -0.2325    64.0063 </r>
       <r>    -1.6420    -0.0598    64.0010 </r>
       <r>    -1.5526    -0.0096    64.0001 </r>
       <r>    -1.4632    -0.0010    64.0000 </r>
       <r>    -1.3738    -0.0001    64.0000 </r>
       <r>    -1.2844    -0.0000    64.0000 </r>
       <r>    -1.1950    -0.0000    64.0000 </r>
       <r>    -1.1056    -0.0001    64.0000 </r>
       <r>    -1.0162    -0.0016    63.9998 </r>
       <r>    -0.9268    -0.0103    63.9989 </r>
       <r>    -0.8374    -0.0390    63.9954 </r>
       <r>    -0.7480    -0.0642    63.9897 </r>
       <r>    -0.6586     0.0639    63.9954 </r>
       <r>    -0.5692     0.4637    64.0369 </r>
       <r>    -0.4798     0.7691    64.1056 </r>
       <r>    -0.3904     0.7029    64.1684 </r>
       <r>    -0.3010     1.6161    64.3129 </r>
       <r>    -0.2116     5.1798    64.7760 </r>
       <r>    -0.1222     9.7464    65.6473 </r>
       <r>    -0.0328    11.2561    66.6536 </r>
       <r>     0.0566     8.5012    67.4136 </r>
       <r>     0.1460     5.5363    67.9085 </r>
       <r>     0.2354     7.1731    68.5498 </r>
       <r>     0.3248    12.7776    69.6921 </r>
       <r>     0.4142    18.6267    71.3573 </r>
       <r>     0.5036    23.1667    73.4283 </r>
       <r>     0.5930    25.6233    75.7190 </r>
       <r>     0.6824    26.4370    78.0824 </r>
       <r>     0.7718    29.1409    80.6876 </r>
       <r>     0.8612    32.5520    83.5977 </r>
       <r>     0.9506    30.8859    86.3588 </r>
       <r>     1.0400    27.6285    88.8288 </r>
       <r>     1.1294    31.4515    91.6405 </r>
       <r>     1.2188    39.9031    95.2077 </r>
       <r>     1.3082    41.0412    98.8767 </r>
       <r>     1.3976    29.4937   101.5134 </r>
       <r>     1.4870    13.3094   102.7033 </r>
       <r>     1.5764     2.4504   102.9223 </r>
       <r>     1.6658    -1.2899   102.8070 </r>
       <r>     1.7552    -1.1986   102.6999 </r>
       <r>     1.8446     0.9683   102.7864 </r>
       <r>     1.9340     7.7070   103.4754 </r>
       <r>     2.0234    19.9973   105.2631 </r>
       <r>     2.1128    28.8313   107.8406 </r>
       <r>     2.2022    24.7777   110.0557 </r>
       <r>     2.2916    13.1296   111.2294 </r>
       <r>     2.3809     5.2475   111.6986 </r>
       <r>     2.4703     4.8749   112.1344 </r>
       <r>     2.5597    10.0100   113.0292 </r>
       <r>     2.6491    16.3478   114.4907 </r>
       <r>     2.7385    17.7256   116.0753 </r>
       <r>     2.8279    13.7121   117.3012 </r>
       <r>     2.9173    12.4196   118.4115 </r>
       <r>     3.0067    16.7694   119.9106 </r>
       <r>     3.0961    21.3078   121.8155 </r>
       <r>     3.1855    26.1909   124.1569 </r>
       <r>     3.2749    33.1668   127.1220 </r>
       <r>     3.3643    34.9573   130.2471 </r>
       <r>     3.4537    29.5082   132.8851 </r>
       <r>     3.5431    25.4449   135.1598 </r>
       <r>     3.6325    24.0073   137.3060 </r>
       <r>     3.7219    19.0925   139.0129 </r>
       <r>     3.8113    12.0863   140.0934 </r>
       <r>     3.9007    11.8629   141.1539 </r>
       <r>     3.9901    20.5945   142.9950 </r>
       <r>     4.0795    26.9914   145.4080 </r>
       <r>     4.1689    22.5185   147.4211 </r>
       <r>     4.2583    16.8485   148.9273 </r>
       <r>     4.3477    21.6509   150.8629 </r>
       <r>     4.4371    31.6694   153.6941 </r>
       <r>     4.5265    37.1220   157.0127 </r>
       <r>     4.6159    37.2213   160.3402 </r>
       <r>     4.7053    35.0586   163.4744 </r>
       <r>     4.7947    34.5173   166.5602 </r>
       <r>     4.8841    36.3735   169.8119 </r>
       <r>     4.9735    35.0264   172.9432 </r>
       <r>     5.0629    30.5689   175.6760 </r>
       <r>     5.1523    29.8627   178.3457 </r>
       <r>     5.2417    31.5173   181.1633 </r>
       <r>     5.3311    29.9148   183.8376 </r>
       <r>     5.4205    28.6302   186.3971 </r>
       <r>     5.5099    34.9439   189.5211 </r>
       <r>     5.5993    44.8821   193.5334 </r>
       <r>     5.6887    45.8314   197.6307 </r>
       <r>     5.7781    37.9329   201.0218 </r>
       <r>     5.8675    33.0237   203.9741 </r>
       <r>     5.9569    32.6214   206.8904 </r>
       <r>     6.0463    30.5552   209.6219 </r>
       <r>     6.1357    28.0606   212.1305 </r>
       <r>     6.2251    30.1250   214.8236 </r>
       <r>     6.3145    34.5009   217.9080 </r>
       <r>     6.4039    36.7979   221.1976 </r>
       <r>     6.4933    35.4671   224.3683 </r>
       <r>     6.5827    29.0197   226.9626 </r>
       <r>     6.6721    23.0711   229.0252 </r>
       <r>     6.7615    28.0624   231.5339 </r>
       <r>     6.8509    42.2926   235.3148 </r>
       <r>     6.9403    48.4844   239.6492 </r>
       <r>     7.0297    36.2394   242.8889 </r>
       <r>     7.1191    17.9248   244.4914 </r>
       <r>     7.2085     9.3174   245.3243 </r>
       <r>     7.2979    11.2664   246.3315 </r>
       <r>     7.3873    16.8886   247.8413 </r>
       <r>     7.4766    21.3226   249.7475 </r>
       <r>     7.5660    22.2003   251.7322 </r>
       <r>     7.6554    18.7707   253.4103 </r>
       <r>     7.7448    12.2157   254.5023 </r>
       <r>     7.8342     6.0420   255.0425 </r>
       <r>     7.9236     3.6875   255.3721 </r>
       <r>     8.0130     3.7437   255.7068 </r>
       <r>     8.1024     2.7711   255.9546 </r>
       <r>     8.1918     0.9122   256.0361 </r>
       <r>     8.2812    -0.1058   256.0266 </r>
       <r>     8.3706    -0.2022   256.0086 </r>
       <r>     8.4600    -0.0777   256.0016 </r>
       <r>     8.5494    -0.0160   256.0002 </r>
       <r>     8.6388    -0.0020   256.0000 </r>
       <r>     8.7282    -0.0002   256.0000 </r>
       <r>     8.8176    -0.0008   255.9999 </r>
       <r>     8.9070    -0.0057   255.9994 </r>
       <r>     8.9964    -0.0241   255.9973 </r>
       <r>     9.0858    -0.0478   255.9930 </r>
       <r>     9.1752     0.0227   255.9950 </r>
       <r>     9.2646     0.3320   256.0247 </r>
       <r>     9.3540     0.7267   256.0897 </r>
       <r>     9.4434     0.7997   256.1612 </r>
       <r>     9.5328     0.7347   256.2268 </r>
       <r>     9.6222     1.1635   256.3308 </r>
       <r>     9.7116     1.7343   256.4859 </r>
       <r>     9.8010     1.4524   256.6157 </r>
       <r>     9.8904     0.4668   256.6575 </r>
       <r>     9.9798    -0.1355   256.6454 </r>
       <r>    10.0692     0.4082   256.6818 </r>
       <r>    10.1586     1.9195   256.8534 </r>
       <r>    10.2480     3.3290   257.1511 </r>
       <r>    10.3374     4.8383   257.5836 </r>
       <r>    10.4268     7.9361   258.2931 </r>
       <r>    10.5162    11.0918   259.2847 </r>
       <r>    10.6056    11.6780   260.3286 </r>
       <r>    10.6950    10.5765   261.2742 </r>
       <r>    10.7844     8.3961   262.0248 </r>
       <r>    10.8738     4.5252   262.4293 </r>
       <r>    10.9632     0.8452   262.5049 </r>
       <r>    11.0526    -0.7573   262.4372 </r>
       <r>    11.1420    -0.4875   262.3936 </r>
       <r>    11.2314     1.6252   262.5389 </r>
       <r>    11.3208     5.0412   262.9895 </r>
       <r>    11.4102     7.4517   263.6557 </r>
       <r>    11.4996     8.8177   264.4440 </r>
       <r>    11.5890    11.2038   265.4456 </r>
       <r>    11.6784    13.1212   266.6186 </r>
       <r>    11.7678    13.7559   267.8484 </r>
       <r>    11.8572    16.9931   269.3675 </r>
       <r>    11.9466    22.2980   271.3609 </r>
       <r>    12.0360    23.4353   273.4560 </r>
       <r>    12.1254    19.1934   275.1719 </r>
       <r>    12.2148    13.3015   276.3610 </r>
       <r>    12.3042     7.3471   277.0178 </r>
       <r>    12.3936     2.4240   277.2345 </r>
       <r>    12.4830     2.5110   277.4590 </r>
       <r>    12.5723    10.3919   278.3880 </r>
       <r>    12.6617    21.3793   280.2993 </r>
       <r>    12.7511    27.2205   282.7327 </r>
       <r>    12.8405    27.1652   285.1613 </r>
       <r>    12.9299    26.5088   287.5311 </r>
       <r>    13.0193    29.7599   290.1916 </r>
       <r>    13.1087    36.8469   293.4856 </r>
       <r>    13.1981    38.7664   296.9513 </r>
       <r>    13.2875    28.7148   299.5183 </r>
       <r>    13.3769    15.2253   300.8794 </r>
       <r>    13.4663    12.0298   301.9549 </r>
       <r>    13.5557    21.8085   303.9045 </r>
       <r>    13.6451    34.1078   306.9537 </r>
       <r>    13.7345    37.2170   310.2808 </r>
       <r>    13.8239    31.1066   313.0617 </r>
       <r>    13.9133    25.9193   315.3788 </r>
       <r>    14.0027    27.6612   317.8517 </r>
       <r>    14.0921    31.5160   320.6692 </r>
       <r>    14.1815    30.2844   323.3765 </r>
       <r>    14.2709    22.0282   325.3458 </r>
       <r>    14.3603    10.7345   326.3055 </r>
       <r>    14.4497     2.7929   326.5552 </r>
       <r>    14.5391     1.6806   326.7054 </r>
       <r>    14.6285     7.2138   327.3503 </r>
       <r>    14.7179    15.5388   328.7394 </r>
       <r>    14.8073    20.0628   330.5330 </r>
       <r>    14.8967    18.9197   332.2244 </r>
       <r>    14.9861    15.1995   333.5832 </r>
       <r>    15.0755     9.9901   334.4763 </r>
       <r>    15.1649     4.0592   334.8392 </r>
       <r>    15.2543     0.3045   334.8664 </r>
       <r>    15.3437     0.3592   334.8985 </r>
       <r>    15.4331     2.9200   335.1596 </r>
       <r>    15.5225     4.7609   335.5852 </r>
       <r>    15.6119     3.7294   335.9186 </r>
       <r>    15.7013     1.3230   336.0369 </r>
       <r>    15.7907    -0.0576   336.0317 </r>
       <r>    15.8801    -0.2370   336.0105 </r>
       <r>    15.9695    -0.0955   336.0020 </r>
       <r>    16.0589    -0.0198   336.0002 </r>
       <r>    16.1483    -0.0024   336.0000 </r>
       <r>    16.2377    -0.0002   336.0000 </r>
       <r>    16.3271    -0.0000   336.0000 </r>
       <r>    16.4165    -0.0000   336.0000 </r>
       <r>    16.5059    -0.0000   336.0000 </r>
       <r>    16.5953    -0.0000   336.0000 </r>
       <r>    16.6847    -0.0000   336.0000 </r>
       <r>    16.7741    -0.0000   336.0000 </r>
       <r>    16.8635     0.0000   336.0000 </r>
       <r>    16.9529     0.0000   336.0000 </r>
       <r>    17.0423     0.0000   336.0000 </r>
       <r>    17.1317     0.0000   336.0000 </r>
       <r>    17.2211     0.0000   336.0000 </r>
       <r>    17.3105     0.0000   336.0000 </r>
       <r>    17.3999     0.0000   336.0000 </r>
       <r>    17.4893     0.0000   336.0000 </r>
      </set>
     </set>
    </array>
   </total>
  </dos>
 </calculation>
 <structure name="finalpos" >
  <crystal>
   <varray name="basis" >
    <v>       8.74331558       0.00000000       0.00000000 </v>
    <v>       0.00000000       8.74331558       0.00000000 </v>
    <v>       0.00000000       0.00000000       8.74331558 </v>
   </varray>
   <i name="volume">    668.38771987 </i>
   <varray name="rec_basis" >
    <v>       0.11437309       0.00000000       0.00000000 </v>
    <v>       0.00000000       0.11437309       0.00000000 </v>
    <v>       0.00000000       0.00000000       0.11437309 </v>
   </varray>
  </crystal>
  <varray name="positions" >
   <v>       0.12500000       0.12500000       0.12500000 </v>
   <v>       0.12500000       0.37500000       0.37500000 </v>
   <v>       0.37500000       0.12500000       0.37500000 </v>
   <v>       0.37500000       0.37500000       0.12500000 </v>
   <v>       0.12500000       0.12500000       0.62500000 </v>
   <v>       0.12500000       0.37500000       0.87500000 </v>
   <v>       0.37500000       0.12500000       0.87500000 </v>
   <v>       0.37500000       0.37500000       0.62500000 </v>
   <v>       0.12500000       0.62500000       0.12500000 </v>
   <v>       0.12500000       0.87500000       0.37500000 </v>
   <v>       0.37500000       0.62500000       0.37500000 </v>
   <v>       0.37500000       0.87500000       0.12500000 </v>
   <v>       0.12500000       0.62500000       0.62500000 </v>
   <v>       0.12500000       0.87500000       0.87500000 </v>
   <v>       0.37500000       0.62500000       0.87500000 </v>
   <v>       0.37500000       0.87500000       0.62500000 </v>
   <v>       0.62500000       0.12500000       0.12500000 </v>
   <v>       0.62500000       0.37500000       0.37500000 </v>
   <v>       0.87500000       0.12500000       0.37500000 </v>
   <v>       0.87500000       0.37500000       0.12500000 </v>
   <v>       0.62500000       0.12500000       0.62500000 </v>
   <v>       0.62500000       0.37500000       0.87500000 </v>
   <v>       0.87500000       0.12500000       0.87500000 </v>
   <v>       0.87500000       0.37500000       0.62500000 </v>
   <v>       0.62500000       0.62500000       0.12500000 </v>
   <v>       0.62500000       0.87500000       0.37500000 </v>
   <v>       0.87500000       0.62500000       0.37500000 </v>
   <v>       0.87500000       0.87500000       0.12500000 </v>
   <v>       0.62500000       0.62500000       0.62500000 </v>
   <v>       0.62500000       0.87500000       0.87500000 </v>
   <v>       0.87500000       0.62500000       0.87500000 </v>
   <v>       0.87500000       0.87500000       0.62500000 </v>
   <v>       0.00000000       0.00000000       0.00000000 </v>
   <v>       0.00000000       0.25000000       0.25000000 </v>
   <v>       0.25000000       0.00000000       0.25000000 </v>
   <v>       0.25000000       0.25000000       0.00000000 </v>
   <v>       0.00000000       0.00000000       0.50000000 </v>
   <v>       0.00000000       0.25000000       0.75000000 </v>
   <v>       0.25000000       0.00000000       0.75000000 </v>
   <v>       0.25000000       0.25000000       0.50000000 </v>
   <v>       0.00000000       0.50000000       0.00000000 </v>
   <v>       0.00000000       0.75000000       0.25000000 </v>
   <v>       0.25000000       0.50000000       0.25000000 </v>
   <v>       0.25000000       0.75000000       0.00000000 </v>
   <v>       0.00000000       0.50000000       0.50000000 </v>
   <v>       0.00000000       0.75000000       0.75000000 </v>
   <v>       0.25000000       0.50000000       0.75000000 </v>
   <v>       0.25000000       0.75000000       0.50000000 </v>
   <v>       0.50000000       0.00000000       0.00000000 </v>
   <v>       0.50000000       0.25000000       0.25000000 </v>
   <v>       0.75000000       0.00000000       0.25000000 </v>
   <v>       0.75000000       0.25000000       0.00000000 </v>
   <v>       0.50000000       0.00000000       0.50000000 </v>
   <v>       0.50000000       0.25000000       0.75000000 </v>
   <v>       0.75000000       0.00000000       0.75000000 </v>
   <v>       0.75000000       0.25000000       0.50000000 </v>
   <v>       0.50000000       0.50000000       0.00000000 </v>
   <v>       0.50000000       0.75000000       0.25000000 </v>
   <v>       0.75000000       0.50000000       0.25000000 </v>
   <v>       0.75000000       0.75000000       0.00000000 </v>
   <v>       0.50000000       0.50000000       0.50000000 </v>
   <v>       0.50000000       0.75000000       0.75000000 </v>
   <v>       0.75000000       0.50000000       0.75000000 </v>
   <v>       0.75000000       0.75000000       0.50000000 </v>
  </varray>
 </structure>
</modeling>
