       N       E                     dE             d eps       ncg     rms          rms(c)
DAV:   1     0.670787425320E+03    0.67079E+03   -0.99573E+04  4704   0.111E+03
DAV:   2    -0.461426180656E+03   -0.11322E+04   -0.10722E+04  5824   0.221E+02
DAV:   3    -0.536653711295E+03   -0.75228E+02   -0.74519E+02  5680   0.562E+01
DAV:   4    -0.538326194920E+03   -0.16725E+01   -0.16655E+01  5688   0.907E+00
DAV:   5    -0.538372038232E+03   -0.45843E-01   -0.45766E-01  5600   0.143E+00    0.494E+01
DAV:   6    -0.481250860181E+03    0.57121E+02   -0.19128E+02  5336   0.236E+01    0.219E+01
DAV:   7    -0.479902144040E+03    0.13487E+01   -0.15940E+01  5848   0.713E+00    0.979E+00
DAV:   8    -0.479671993218E+03    0.23015E+00   -0.10435E+00  5448   0.200E+00    0.273E+00
DAV:   9    -0.479655212267E+03    0.16781E-01   -0.15116E-01  5472   0.851E-01    0.463E-01
DAV:  10    -0.479658133499E+03   -0.29212E-02   -0.14671E-02  5680   0.274E-01    0.251E-01
DAV:  11    -0.479659186461E+03   -0.10530E-02   -0.21360E-03  5320   0.120E-01    0.984E-02
DAV:  12    -0.479659299173E+03   -0.11271E-03   -0.42132E-04  5944   0.507E-02    0.419E-02
DAV:  13    -0.479659318752E+03   -0.19578E-04   -0.10531E-04  5120   0.245E-02    0.107E-02
DAV:  14    -0.479659323306E+03   -0.45539E-05   -0.66623E-06  5544   0.639E-03    0.563E-03
DAV:  15    -0.479659324966E+03   -0.16606E-05   -0.31439E-06  5640   0.394E-03    0.426E-03
DAV:  16    -0.479659324894E+03    0.72079E-07   -0.42320E-07  5824   0.170E-03    0.122E-03
DAV:  17    -0.479659325271E+03   -0.37681E-06   -0.10746E-07  5352   0.717E-04    0.724E-04
DAV:  18    -0.479659325311E+03   -0.39414E-07   -0.66801E-09  2760   0.224E-04    0.272E-04
DAV:  19    -0.479659325293E+03    0.18073E-07   -0.55339E-09  2720   0.171E-04    0.977E-05
DAV:  20    -0.479659325300E+03   -0.71523E-08   -0.84845E-10  2704   0.871E-05
   1 F= -.47965933E+03 E0= -.47966284E+03  d E =0.105341E-01
