<?xml version="1.0" encoding="ISO-8859-1"?>
<modeling>
 <generator>
  <i name="program" type="string">vasp </i>
  <i name="version" type="string">6.2.1  </i>
  <i name="subversion" type="string">16May21 (build Jun 06 2020 10:27:25) complex                          parallel </i>
  <i name="platform" type="string">LinuxIFC </i>
  <i name="date" type="string">2024 01 25 </i>
  <i name="time" type="string">17:15:28 </i>
 </generator>
 <incar>
  <i type="int" name="NELM">    60</i>
  <i type="int" name="IBRION">     1</i>
  <i name="EDIFF">      0.00000001</i>
  <i type="int" name="NSW">     0</i>
  <i type="int" name="ISIF">     3</i>
  <i type="int" name="ISYM">     0</i>
  <i type="logical" name="LWAVE"> F  </i>
  <i type="logical" name="LCHARG"> F  </i>
  <i type="string" name="GGA">PE</i>
 </incar>
 <primitive_cell>
  <structure name="primitive_cell" >
   <crystal>
    <varray name="basis" >
     <v>       8.74331558       0.00000000       0.00000000 </v>
     <v>       0.00000000       8.74331558       0.00000000 </v>
     <v>       0.00000000       0.00000000       8.74331558 </v>
    </varray>
    <i name="volume">    668.38771987 </i>
    <varray name="rec_basis" >
     <v>       0.11437309       0.00000000       0.00000000 </v>
     <v>       0.00000000       0.11437309       0.00000000 </v>
     <v>       0.00000000       0.00000000       0.11437309 </v>
    </varray>
   </crystal>
   <varray name="positions" >
    <v>       0.11669620       0.12398768       0.11911460 </v>
    <v>       0.13033828       0.37596709       0.37448619 </v>
    <v>       0.37780900       0.12308139       0.38050263 </v>
    <v>       0.37108123       0.37203806       0.12871189 </v>
    <v>       0.12589320       0.13112658       0.62830060 </v>
    <v>       0.12400609       0.37765566       0.87946208 </v>
    <v>       0.37644556       0.12714845       0.87375242 </v>
    <v>       0.36825823       0.37523418       0.62628327 </v>
    <v>       0.12677529       0.62253910       0.12617922 </v>
    <v>       0.11919629       0.87624129       0.38020584 </v>
    <v>       0.36865816       0.62387176       0.37873841 </v>
    <v>       0.37454489       0.87522546       0.12565241 </v>
    <v>       0.12162687       0.63149115       0.62194096 </v>
    <v>       0.12303698       0.86865011       0.87350395 </v>
    <v>       0.38316104       0.62665585       0.87407298 </v>
    <v>       0.37299096       0.87194057       0.63304590 </v>
    <v>       0.62870655       0.12010000       0.12335532 </v>
    <v>       0.61930164       0.37293532       0.37112059 </v>
    <v>       0.87638327       0.12005566       0.37305391 </v>
    <v>       0.88130806       0.37403925       0.12892384 </v>
    <v>       0.62341258       0.12918732       0.62778200 </v>
    <v>       0.62667692       0.37833645       0.87362280 </v>
    <v>       0.87604657       0.12143691       0.87591840 </v>
    <v>       0.87575041       0.37408939       0.62588136 </v>
    <v>       0.63074581       0.62695978       0.12596617 </v>
    <v>       0.62628781       0.87800312       0.37391503 </v>
    <v>       0.87382087       0.62392026       0.37667492 </v>
    <v>       0.87293279       0.87711678       0.12391305 </v>
    <v>       0.62270600       0.62472770       0.62423564 </v>
    <v>       0.61716044       0.87620107       0.87468481 </v>
    <v>       0.87362009       0.62517900       0.87588546 </v>
    <v>       0.87730414       0.87421958       0.62427252 </v>
    <v>       0.00274981       0.99009525       0.99865430 </v>
    <v>       0.00101077       0.24561648       0.24975446 </v>
    <v>       0.25492083       0.99701717       0.24631563 </v>
    <v>       0.24851483       0.24945287       0.00170851 </v>
    <v>       0.99856180       0.99745152       0.50492225 </v>
    <v>       0.00092769       0.25067977       0.75137305 </v>
    <v>       0.24629237       0.99527885       0.75025536 </v>
    <v>       0.24447538       0.24734896       0.51091376 </v>
    <v>       0.99974358       0.49637833       0.00587500 </v>
    <v>       0.99270966       0.74478616       0.24630060 </v>
    <v>       0.24482497       0.50274517       0.24510318 </v>
    <v>       0.25058869       0.74536254       0.00560582 </v>
    <v>       0.00056771       0.49636232       0.50415064 </v>
    <v>       0.99976462       0.75473331       0.74762719 </v>
    <v>       0.25390569       0.50024636       0.75102774 </v>
    <v>       0.25132524       0.74457168       0.49514640 </v>
    <v>       0.49838444       0.99820598       0.00128607 </v>
    <v>       0.50175617       0.25065766       0.25143005 </v>
    <v>       0.74201197       0.99899276       0.24974906 </v>
    <v>       0.75254797       0.25016654       0.00096898 </v>
    <v>       0.49855184       0.00155031       0.50337872 </v>
    <v>       0.49718758       0.24671026       0.74818992 </v>
    <v>       0.75495457       0.00203331       0.75638747 </v>
    <v>       0.75087636       0.25307904       0.50413367 </v>
    <v>       0.50082497       0.50443746       0.00241161 </v>
    <v>       0.50870062       0.74898334       0.24870119 </v>
    <v>       0.74348236       0.50304390       0.25103602 </v>
    <v>       0.75301214       0.75345385       0.00134194 </v>
    <v>       0.49213432       0.50381693       0.49979740 </v>
    <v>       0.50092408       0.75204323       0.74891477 </v>
    <v>       0.75032389       0.49507668       0.74814429 </v>
    <v>       0.75163534       0.75150322       0.48551960 </v>
   </varray>
  </structure>
  <varray name="primitive_index" >
   <v type="int" >        1 </v>
   <v type="int" >        2 </v>
   <v type="int" >        3 </v>
   <v type="int" >        4 </v>
   <v type="int" >        5 </v>
   <v type="int" >        6 </v>
   <v type="int" >        7 </v>
   <v type="int" >        8 </v>
   <v type="int" >        9 </v>
   <v type="int" >       10 </v>
   <v type="int" >       11 </v>
   <v type="int" >       12 </v>
   <v type="int" >       13 </v>
   <v type="int" >       14 </v>
   <v type="int" >       15 </v>
   <v type="int" >       16 </v>
   <v type="int" >       17 </v>
   <v type="int" >       18 </v>
   <v type="int" >       19 </v>
   <v type="int" >       20 </v>
   <v type="int" >       21 </v>
   <v type="int" >       22 </v>
   <v type="int" >       23 </v>
   <v type="int" >       24 </v>
   <v type="int" >       25 </v>
   <v type="int" >       26 </v>
   <v type="int" >       27 </v>
   <v type="int" >       28 </v>
   <v type="int" >       29 </v>
   <v type="int" >       30 </v>
   <v type="int" >       31 </v>
   <v type="int" >       32 </v>
   <v type="int" >       33 </v>
   <v type="int" >       34 </v>
   <v type="int" >       35 </v>
   <v type="int" >       36 </v>
   <v type="int" >       37 </v>
   <v type="int" >       38 </v>
   <v type="int" >       39 </v>
   <v type="int" >       40 </v>
   <v type="int" >       41 </v>
   <v type="int" >       42 </v>
   <v type="int" >       43 </v>
   <v type="int" >       44 </v>
   <v type="int" >       45 </v>
   <v type="int" >       46 </v>
   <v type="int" >       47 </v>
   <v type="int" >       48 </v>
   <v type="int" >       49 </v>
   <v type="int" >       50 </v>
   <v type="int" >       51 </v>
   <v type="int" >       52 </v>
   <v type="int" >       53 </v>
   <v type="int" >       54 </v>
   <v type="int" >       55 </v>
   <v type="int" >       56 </v>
   <v type="int" >       57 </v>
   <v type="int" >       58 </v>
   <v type="int" >       59 </v>
   <v type="int" >       60 </v>
   <v type="int" >       61 </v>
   <v type="int" >       62 </v>
   <v type="int" >       63 </v>
   <v type="int" >       64 </v>
  </varray>
 </primitive_cell>
 <kpoints>
  <generation param="Monkhorst-Pack">
   <v type="int" name="divisions">       3        3        3 </v>
   <v name="usershift">      0.00000000       0.00000000       0.00000000 </v>
   <v name="genvec1">      0.33333333       0.00000000       0.00000000 </v>
   <v name="genvec2">      0.00000000       0.33333333       0.00000000 </v>
   <v name="genvec3">      0.00000000       0.00000000       0.33333333 </v>
   <v name="shift">      0.00000000       0.00000000       0.00000000 </v>
  </generation>
  <varray name="kpointlist" >
   <v>       0.00000000       0.00000000       0.00000000 </v>
   <v>       0.33333333       0.00000000       0.00000000 </v>
   <v>       0.00000000       0.33333333       0.00000000 </v>
   <v>       0.00000000       0.00000000       0.33333333 </v>
   <v>       0.33333333       0.33333333       0.00000000 </v>
   <v>       0.00000000       0.33333333       0.33333333 </v>
   <v>       0.33333333       0.00000000       0.33333333 </v>
   <v>      -0.33333333       0.33333333       0.00000000 </v>
   <v>      -0.33333333       0.00000000       0.33333333 </v>
   <v>       0.00000000      -0.33333333       0.33333333 </v>
   <v>       0.33333333       0.33333333       0.33333333 </v>
   <v>      -0.33333333       0.33333333       0.33333333 </v>
   <v>      -0.33333333      -0.33333333       0.33333333 </v>
   <v>       0.33333333      -0.33333333       0.33333333 </v>
  </varray>
  <varray name="weights" >
   <v>       0.03703704 </v>
   <v>       0.07407407 </v>
   <v>       0.07407407 </v>
   <v>       0.07407407 </v>
   <v>       0.07407407 </v>
   <v>       0.07407407 </v>
   <v>       0.07407407 </v>
   <v>       0.07407407 </v>
   <v>       0.07407407 </v>
   <v>       0.07407407 </v>
   <v>       0.07407407 </v>
   <v>       0.07407407 </v>
   <v>       0.07407407 </v>
   <v>       0.07407407 </v>
  </varray>
 </kpoints>
 <parameters>
  <separator name="general" >
   <i type="string" name="SYSTEM">unknown system</i>
   <i type="logical" name="LCOMPAT"> F  </i>
  </separator>
  <separator name="electronic" >
   <i type="string" name="PREC">normal</i>
   <i name="ENMAX">    400.00000000</i>
   <i name="ENAUG">    644.87300000</i>
   <i name="EDIFF">      0.00000001</i>
   <i type="int" name="IALGO">    38</i>
   <i type="int" name="IWAVPR">    10</i>
   <i type="int" name="NBANDS">   168</i>
   <i type="int" name="NBANDSLOW">    -1</i>
   <i type="int" name="NBANDSHIGH">    -1</i>
   <i name="NELECT">    256.00000000</i>
   <i type="int" name="TURBO">     0</i>
   <i type="int" name="IRESTART">     0</i>
   <i type="int" name="NREBOOT">     0</i>
   <i type="int" name="NMIN">     0</i>
   <i name="EREF">      0.00000000</i>
   <separator name="electronic smearing" >
    <i type="int" name="ISMEAR">     1</i>
    <i name="SIGMA">      0.20000000</i>
    <i name="KSPACING">      0.50000000</i>
    <i type="logical" name="KGAMMA"> T  </i>
    <i type="logical" name="KBLOWUP"> T  </i>
   </separator>
   <separator name="electronic projectors" >
    <i type="logical" name="LREAL"> F  </i>
    <v name="ROPT">      0.00000000      0.00000000</v>
    <i type="int" name="LMAXPAW">  -100</i>
    <i type="int" name="LMAXMIX">     2</i>
    <i type="logical" name="NLSPLINE"> F  </i>
   </separator>
   <separator name="electronic startup" >
    <i type="int" name="ISTART">     0</i>
    <i type="int" name="ICHARG">     2</i>
    <i type="int" name="INIWAV">     1</i>
   </separator>
   <separator name="electronic spin" >
    <i type="int" name="ISPIN">     1</i>
    <i type="logical" name="LNONCOLLINEAR"> F  </i>
    <v name="MAGMOM">      1.00000000      1.00000000      1.00000000      1.00000000      1.00000000      1.00000000      1.00000000      1.00000000      1.00000000      1.00000000      1.00000000      1.00000000      1.00000000      1.00000000      1.00000000      1.00000000      1.00000000      1.00000000      1.00000000      1.00000000
      1.00000000      1.00000000      1.00000000      1.00000000      1.00000000      1.00000000      1.00000000      1.00000000      1.00000000      1.00000000      1.00000000      1.00000000      1.00000000      1.00000000      1.00000000      1.00000000      1.00000000      1.00000000      1.00000000      1.00000000
      1.00000000      1.00000000      1.00000000      1.00000000      1.00000000      1.00000000      1.00000000      1.00000000      1.00000000      1.00000000      1.00000000      1.00000000      1.00000000      1.00000000      1.00000000      1.00000000      1.00000000      1.00000000      1.00000000      1.00000000
      1.00000000      1.00000000      1.00000000      1.00000000</v>
    <i name="NUPDOWN">     -1.00000000</i>
    <i type="logical" name="LSORBIT"> F  </i>
    <v name="SAXIS">      0.00000000      0.00000000      1.00000000</v>
    <i type="logical" name="LSPIRAL"> F  </i>
    <v name="QSPIRAL">      0.00000000      0.00000000      0.00000000</v>
    <i type="logical" name="LZEROZ"> F  </i>
   </separator>
   <separator name="electronic exchange-correlation" >
    <i type="logical" name="LASPH"> F  </i>
    <i type="logical" name="LMETAGGA"> F  </i>
   </separator>
   <separator name="electronic convergence" >
    <i type="int" name="NELM">    60</i>
    <i type="int" name="NELMDL">    -5</i>
    <i type="int" name="NELMIN">     2</i>
    <i name="ENINI">    400.00000000</i>
    <separator name="electronic convergence detail" >
     <i type="logical" name="LDIAG"> T  </i>
     <i type="logical" name="LSUBROT"> F  </i>
     <i name="WEIMIN">      0.00000000</i>
     <i name="EBREAK">      0.00000000</i>
     <i name="DEPER">      0.30000000</i>
     <i type="int" name="NRMM">     4</i>
     <i name="TIME">      0.40000000</i>
    </separator>
   </separator>
   <separator name="electronic mixer" >
    <i name="AMIX">      0.40000000</i>
    <i name="BMIX">      1.00000000</i>
    <i name="AMIN">      0.10000000</i>
    <i name="AMIX_MAG">      1.60000000</i>
    <i name="BMIX_MAG">      1.00000000</i>
    <separator name="electronic mixer details" >
     <i type="int" name="IMIX">     4</i>
     <i type="logical" name="MIXFIRST"> F  </i>
     <i type="int" name="MAXMIX">   -45</i>
     <i name="WC">    100.00000000</i>
     <i type="int" name="INIMIX">     1</i>
     <i type="int" name="MIXPRE">     1</i>
     <i type="int" name="MREMOVE">     5</i>
    </separator>
   </separator>
   <separator name="electronic dipolcorrection" >
    <i type="logical" name="LDIPOL"> F  </i>
    <i type="logical" name="LMONO"> F  </i>
    <i type="int" name="IDIPOL">     0</i>
    <i name="EPSILON">      1.00000000</i>
    <v name="DIPOL">   -100.00000000   -100.00000000   -100.00000000</v>
    <i name="EFIELD">      0.00000000</i>
   </separator>
  </separator>
  <separator name="grids" >
   <i type="int" name="NGX">    48</i>
   <i type="int" name="NGY">    48</i>
   <i type="int" name="NGZ">    48</i>
   <i type="int" name="NGXF">    96</i>
   <i type="int" name="NGYF">    96</i>
   <i type="int" name="NGZF">    96</i>
   <i type="logical" name="ADDGRID"> F  </i>
  </separator>
  <separator name="ionic" >
   <i type="int" name="NSW">     0</i>
   <i type="int" name="IBRION">    -1</i>
   <i type="int" name="MDALGO">     0</i>
   <i type="int" name="ISIF">     3</i>
   <i name="PSTRESS">      0.00000000</i>
   <i name="EDIFFG">      0.00000010</i>
   <i type="int" name="NFREE">     0</i>
   <i name="POTIM">      0.50000000</i>
   <i name="SMASS">     -3.00000000</i>
   <i name="SCALEE">      1.00000000</i>
  </separator>
  <separator name="ionic md" >
   <i name="TEBEG">      0.00010000</i>
   <i name="TEEND">      0.00010000</i>
   <i type="int" name="NBLOCK">     1</i>
   <i type="int" name="KBLOCK">     1</i>
   <i type="int" name="NPACO">   256</i>
   <i name="APACO">     16.00000000</i>
  </separator>
  <separator name="symmetry" >
   <i type="int" name="ISYM">     0</i>
   <i name="SYMPREC">      0.00001000</i>
  </separator>
  <separator name="dos" >
   <i type="int" name="LORBIT">     0</i>
   <v name="RWIGS">     -1.00000000     -1.00000000</v>
   <i type="int" name="NEDOS">   301</i>
   <i name="EMIN">     10.00000000</i>
   <i name="EMAX">    -10.00000000</i>
   <i name="EFERMI">      0.00000000</i>
  </separator>
  <separator name="writing" >
   <i type="int" name="NWRITE">     2</i>
   <i type="logical" name="LWAVE"> F  </i>
   <i type="logical" name="LDOWNSAMPLE"> F  </i>
   <i type="logical" name="LCHARG"> F  </i>
   <i type="logical" name="LPARD"> F  </i>
   <i type="logical" name="LVTOT"> F  </i>
   <i type="logical" name="LVHAR"> F  </i>
   <i type="logical" name="LELF"> F  </i>
   <i type="logical" name="LOPTICS"> F  </i>
   <v name="STM">      0.00000000      0.00000000      0.00000000      0.00000000      0.00000000      0.00000000      0.00000000</v>
  </separator>
  <separator name="performance" >
   <i type="int" name="NPAR">     8</i>
   <i type="int" name="NSIM">     4</i>
   <i type="int" name="NBLK">    -1</i>
   <i type="logical" name="LPLANE"> T  </i>
   <i type="logical" name="LSCALAPACK"> T  </i>
   <i type="logical" name="LSCAAWARE"> F  </i>
   <i type="logical" name="LSCALU"> F  </i>
   <i type="logical" name="LASYNC"> F  </i>
   <i type="logical" name="LORBITALREAL"> F  </i>
  </separator>
  <separator name="miscellaneous" >
   <i type="int" name="IDIOT">     3</i>
   <i type="int" name="PHON_NSTRUCT">    -1</i>
   <i type="logical" name="LMUSIC"> F  </i>
   <v name="POMASS">     12.01100000     28.08500000</v>
   <v name="DARWINR">      0.00000000      0.00000000</v>
   <v name="DARWINV">      1.00000000      1.00000000</v>
   <i type="logical" name="LCORR"> T  </i>
  </separator>
  <i type="logical" name="GGA_COMPAT"> T  </i>
  <i type="logical" name="LBERRY"> F  </i>
  <i type="int" name="ICORELEVEL">     0</i>
  <i type="logical" name="LDAU"> F  </i>
  <i type="int" name="I_CONSTRAINED_M">     0</i>
  <separator name="electronic exchange-correlation" >
   <i type="string" name="GGA">PE</i>
   <i type="int" name="VOSKOWN">     0</i>
   <i type="logical" name="LHFCALC"> F  </i>
   <i type="string" name="PRECFOCK"></i>
   <i type="logical" name="LSYMGRAD"> F  </i>
   <i type="logical" name="LHFONE"> F  </i>
   <i type="logical" name="LRHFCALC"> F  </i>
   <i type="logical" name="LTHOMAS"> F  </i>
   <i type="logical" name="LMODELHF"> F  </i>
   <i type="logical" name="LFOCKACE"> F  </i>
   <i name="ENCUT4O">     -1.00000000</i>
   <i type="int" name="EXXOEP">     0</i>
   <i type="int" name="FOURORBIT">     0</i>
   <i name="AEXX">      0.00000000</i>
   <i name="HFALPHA">      0.00000000</i>
   <i name="MCALPHA">      0.00000000</i>
   <i name="ALDAX">      1.00000000</i>
   <i name="AGGAX">      1.00000000</i>
   <i name="ALDAC">      1.00000000</i>
   <i name="AGGAC">      1.00000000</i>
   <i type="int" name="NKREDX">     1</i>
   <i type="int" name="NKREDY">     1</i>
   <i type="int" name="NKREDZ">     1</i>
   <i type="logical" name="SHIFTRED"> F  </i>
   <i type="logical" name="ODDONLY"> F  </i>
   <i type="logical" name="EVENONLY"> F  </i>
   <i type="int" name="LMAXFOCK">     0</i>
   <i type="int" name="NMAXFOCKAE">     0</i>
   <i type="logical" name="LFOCKAEDFT"> F  </i>
   <i name="HFSCREEN">      0.00000000</i>
   <i name="HFSCREENC">      0.00000000</i>
   <i type="int" name="NBANDSGWLOW">     0</i>
  </separator>
  <separator name="vdW DFT" >
   <i type="logical" name="LUSE_VDW"> F  </i>
   <i name="Zab_VDW">     -0.84910000</i>
   <i name="PARAM1">      0.12340000</i>
   <i name="PARAM2">      1.00000000</i>
   <i name="PARAM3">      0.00000000</i>
  </separator>
  <separator name="model GW" >
   <i type="int" name="MODEL_GW">     0</i>
   <i name="MODEL_EPS0">      6.26613487</i>
   <i name="MODEL_ALPHA">      1.00000000</i>
  </separator>
  <separator name="linear response parameters" >
   <i type="logical" name="LEPSILON"> F  </i>
   <i type="logical" name="LRPA"> F  </i>
   <i type="logical" name="LNABLA"> F  </i>
   <i type="logical" name="LVEL"> F  </i>
   <i type="int" name="KINTER">     0</i>
   <i name="CSHIFT">      0.10000000</i>
   <i name="OMEGAMAX">     -1.00000000</i>
   <i name="DEG_THRESHOLD">      0.00200000</i>
   <i name="RTIME">     -0.10000000</i>
   <i name="WPLASMAI">      0.00000000</i>
   <v name="DFIELD">      0.00000000      0.00000000      0.00000000</v>
   <v name="WPLASMA">      0.00000000      0.00000000      0.00000000      0.00000000      0.00000000      0.00000000      0.00000000      0.00000000      0.00000000</v>
  </separator>
  <separator name="orbital magnetization" >
   <i type="logical" name="NUCIND"> F  </i>
   <v name="MAGPOS">      0.00000000      0.00000000      0.00000000</v>
   <i type="logical" name="LNICSALL"> T  </i>
   <i type="logical" name="ORBITALMAG"> F  </i>
   <i type="logical" name="LMAGBLOCH"> F  </i>
   <i type="logical" name="LCHIMAG"> F  </i>
   <i type="logical" name="LGAUGE"> T  </i>
   <i type="int" name="MAGATOM">     0</i>
   <v name="MAGDIPOL">      0.00000000      0.00000000      0.00000000</v>
   <v name="AVECCONST">      0.00000000      0.00000000      0.00000000</v>
  </separator>
  <separator name="response functions" >
   <i type="logical" name="LFINITE_TEMPERATURE"> F  </i>
   <i type="logical" name="LADDER"> F  </i>
   <i type="logical" name="LRPAFORCE"> F  </i>
   <i type="logical" name="LFXC"> F  </i>
   <i type="logical" name="LHARTREE"> T  </i>
   <i type="int" name="IBSE">     0</i>
   <v type="int" name="KPOINT">    -1     0     0     0</v>
   <i type="logical" name="LTCTC"> F  </i>
   <i type="logical" name="LTCTE"> F  </i>
   <i type="logical" name="LTETE"> F  </i>
   <i type="logical" name="LTRIPLET"> F  </i>
   <i type="logical" name="LFXCEPS"> F  </i>
   <i type="logical" name="LFXHEG"> F  </i>
   <i type="int" name="NATURALO">     2</i>
   <i type="logical" name="LHOLEGF"> F  </i>
   <i type="logical" name="L2ORDER"> F  </i>
   <i type="logical" name="LDMP1"> F  </i>
   <i type="logical" name="LMP2LT"> F  </i>
   <i type="logical" name="LSMP2LT"> F  </i>
   <i type="logical" name="LGWLF"> F  </i>
   <i name="ENCUTGW">     -2.00000000</i>
   <i name="ENCUTGWSOFT">     -2.00000000</i>
   <i name="ENCUTLF">     -1.00000000</i>
   <i type="logical" name="LESF_SPLINES"> F  </i>
   <i type="int" name="LMAXMP2">    -1</i>
   <i name="SCISSOR">      0.00000000</i>
   <i type="int" name="NOMEGA">     0</i>
   <i type="int" name="NOMEGAR">     0</i>
   <i type="int" name="NBANDSGW">    -1</i>
   <i type="int" name="NBANDSO">    -1</i>
   <i type="int" name="NBANDSV">    -1</i>
   <i type="int" name="NELM">    60</i>
   <i type="int" name="NELMHF">     1</i>
   <i type="int" name="DIM">     3</i>
   <i type="int" name="IESPILON">     4</i>
   <i type="int" name="ANTIRES">     0</i>
   <i name="OMEGAMAX">    -30.00000000</i>
   <i name="OMEGAMIN">    -30.00000000</i>
   <i name="OMEGATL">   -200.00000000</i>
   <i type="int" name="OMEGAGRID">     0</i>
   <i name="CSHIFT">     -0.10000000</i>
   <i type="logical" name="LSELFENERGY"> F  </i>
   <i type="logical" name="LSPECTRAL"> F  </i>
   <i type="logical" name="LSPECTRALGW"> F  </i>
   <i type="logical" name="LSINGLES"> F  </i>
   <i type="logical" name="LFERMIGW"> F  </i>
   <i type="logical" name="ODDONLYGW"> F  </i>
   <i type="logical" name="EVENONLYGW"> F  </i>
   <i type="int" name="NKREDLFX">     1</i>
   <i type="int" name="NKREDLFY">     1</i>
   <i type="int" name="NKREDLFZ">     1</i>
   <i type="int" name="MAXMEM">  2800</i>
   <i type="int" name="TELESCOPE">     0</i>
   <i type="int" name="NTAUPAR">    -1</i>
   <i type="int" name="NOMEGAPAR">    -1</i>
   <i name="DAMP_NEWTON">      0.80000001</i>
   <i name="LAMBDA">      1.00000000</i>
  </separator>
  <separator name="External order field" >
   <i name="OFIELD_KAPPA">      0.00000000</i>
   <v name="OFIELD_K">      0.00000000      0.00000000      0.00000000</v>
   <i name="OFIELD_Q6_NEAR">      0.00000000</i>
   <i name="OFIELD_Q6_FAR">      0.00000000</i>
   <i name="OFIELD_A">      0.00000000</i>
  </separator>
 </parameters>
 <atominfo>
  <atoms>      64 </atoms>
  <types>       2 </types>
  <array name="atoms" >
   <dimension dim="1">ion</dimension>
   <field type="string">element</field>
   <field type="int">atomtype</field>
   <set>
    <rc><c>C </c><c>   1</c></rc>
    <rc><c>C </c><c>   1</c></rc>
    <rc><c>C </c><c>   1</c></rc>
    <rc><c>C </c><c>   1</c></rc>
    <rc><c>C </c><c>   1</c></rc>
    <rc><c>C </c><c>   1</c></rc>
    <rc><c>C </c><c>   1</c></rc>
    <rc><c>C </c><c>   1</c></rc>
    <rc><c>C </c><c>   1</c></rc>
    <rc><c>C </c><c>   1</c></rc>
    <rc><c>C </c><c>   1</c></rc>
    <rc><c>C </c><c>   1</c></rc>
    <rc><c>C </c><c>   1</c></rc>
    <rc><c>C </c><c>   1</c></rc>
    <rc><c>C </c><c>   1</c></rc>
    <rc><c>C </c><c>   1</c></rc>
    <rc><c>C </c><c>   1</c></rc>
    <rc><c>C </c><c>   1</c></rc>
    <rc><c>C </c><c>   1</c></rc>
    <rc><c>C </c><c>   1</c></rc>
    <rc><c>C </c><c>   1</c></rc>
    <rc><c>C </c><c>   1</c></rc>
    <rc><c>C </c><c>   1</c></rc>
    <rc><c>C </c><c>   1</c></rc>
    <rc><c>C </c><c>   1</c></rc>
    <rc><c>C </c><c>   1</c></rc>
    <rc><c>C </c><c>   1</c></rc>
    <rc><c>C </c><c>   1</c></rc>
    <rc><c>C </c><c>   1</c></rc>
    <rc><c>C </c><c>   1</c></rc>
    <rc><c>C </c><c>   1</c></rc>
    <rc><c>C </c><c>   1</c></rc>
    <rc><c>Si</c><c>   2</c></rc>
    <rc><c>Si</c><c>   2</c></rc>
    <rc><c>Si</c><c>   2</c></rc>
    <rc><c>Si</c><c>   2</c></rc>
    <rc><c>Si</c><c>   2</c></rc>
    <rc><c>Si</c><c>   2</c></rc>
    <rc><c>Si</c><c>   2</c></rc>
    <rc><c>Si</c><c>   2</c></rc>
    <rc><c>Si</c><c>   2</c></rc>
    <rc><c>Si</c><c>   2</c></rc>
    <rc><c>Si</c><c>   2</c></rc>
    <rc><c>Si</c><c>   2</c></rc>
    <rc><c>Si</c><c>   2</c></rc>
    <rc><c>Si</c><c>   2</c></rc>
    <rc><c>Si</c><c>   2</c></rc>
    <rc><c>Si</c><c>   2</c></rc>
    <rc><c>Si</c><c>   2</c></rc>
    <rc><c>Si</c><c>   2</c></rc>
    <rc><c>Si</c><c>   2</c></rc>
    <rc><c>Si</c><c>   2</c></rc>
    <rc><c>Si</c><c>   2</c></rc>
    <rc><c>Si</c><c>   2</c></rc>
    <rc><c>Si</c><c>   2</c></rc>
    <rc><c>Si</c><c>   2</c></rc>
    <rc><c>Si</c><c>   2</c></rc>
    <rc><c>Si</c><c>   2</c></rc>
    <rc><c>Si</c><c>   2</c></rc>
    <rc><c>Si</c><c>   2</c></rc>
    <rc><c>Si</c><c>   2</c></rc>
    <rc><c>Si</c><c>   2</c></rc>
    <rc><c>Si</c><c>   2</c></rc>
    <rc><c>Si</c><c>   2</c></rc>
   </set>
  </array>
  <array name="atomtypes" >
   <dimension dim="1">type</dimension>
   <field type="int">atomspertype</field>
   <field type="string">element</field>
   <field>mass</field>
   <field>valence</field>
   <field type="string">pseudopotential</field>
   <set>
    <rc><c>  32</c><c>C </c><c>     12.01100000</c><c>      4.00000000</c><c>  PAW_PBE C 08Apr2002                   </c></rc>
    <rc><c>  32</c><c>Si</c><c>     28.08500000</c><c>      4.00000000</c><c>  PAW_PBE Si 05Jan2001                  </c></rc>
   </set>
  </array>
 </atominfo>
 <structure name="initialpos" >
  <crystal>
   <varray name="basis" >
    <v>       8.74331558       0.00000000       0.00000000 </v>
    <v>       0.00000000       8.74331558       0.00000000 </v>
    <v>       0.00000000       0.00000000       8.74331558 </v>
   </varray>
   <i name="volume">    668.38771987 </i>
   <varray name="rec_basis" >
    <v>       0.11437309       0.00000000       0.00000000 </v>
    <v>       0.00000000       0.11437309       0.00000000 </v>
    <v>       0.00000000       0.00000000       0.11437309 </v>
   </varray>
  </crystal>
  <varray name="positions" >
   <v>       0.11669620       0.12398768       0.11911460 </v>
   <v>       0.13033828       0.37596709       0.37448619 </v>
   <v>       0.37780900       0.12308139       0.38050263 </v>
   <v>       0.37108123       0.37203806       0.12871189 </v>
   <v>       0.12589320       0.13112658       0.62830060 </v>
   <v>       0.12400609       0.37765566       0.87946208 </v>
   <v>       0.37644556       0.12714845       0.87375242 </v>
   <v>       0.36825823       0.37523418       0.62628327 </v>
   <v>       0.12677529       0.62253910       0.12617922 </v>
   <v>       0.11919629       0.87624129       0.38020584 </v>
   <v>       0.36865816       0.62387176       0.37873841 </v>
   <v>       0.37454489       0.87522546       0.12565241 </v>
   <v>       0.12162687       0.63149115       0.62194096 </v>
   <v>       0.12303698       0.86865011       0.87350395 </v>
   <v>       0.38316104       0.62665585       0.87407298 </v>
   <v>       0.37299096       0.87194057       0.63304590 </v>
   <v>       0.62870655       0.12010000       0.12335532 </v>
   <v>       0.61930164       0.37293532       0.37112059 </v>
   <v>       0.87638327       0.12005566       0.37305391 </v>
   <v>       0.88130806       0.37403925       0.12892384 </v>
   <v>       0.62341258       0.12918732       0.62778200 </v>
   <v>       0.62667692       0.37833645       0.87362280 </v>
   <v>       0.87604657       0.12143691       0.87591840 </v>
   <v>       0.87575041       0.37408939       0.62588136 </v>
   <v>       0.63074581       0.62695978       0.12596617 </v>
   <v>       0.62628781       0.87800312       0.37391503 </v>
   <v>       0.87382087       0.62392026       0.37667492 </v>
   <v>       0.87293279       0.87711678       0.12391305 </v>
   <v>       0.62270600       0.62472770       0.62423564 </v>
   <v>       0.61716044       0.87620107       0.87468481 </v>
   <v>       0.87362009       0.62517900       0.87588546 </v>
   <v>       0.87730414       0.87421958       0.62427252 </v>
   <v>       0.00274981       0.99009525       0.99865430 </v>
   <v>       0.00101077       0.24561648       0.24975446 </v>
   <v>       0.25492083       0.99701717       0.24631563 </v>
   <v>       0.24851483       0.24945287       0.00170851 </v>
   <v>       0.99856180       0.99745152       0.50492225 </v>
   <v>       0.00092769       0.25067977       0.75137305 </v>
   <v>       0.24629237       0.99527885       0.75025536 </v>
   <v>       0.24447538       0.24734896       0.51091376 </v>
   <v>       0.99974358       0.49637833       0.00587500 </v>
   <v>       0.99270966       0.74478616       0.24630060 </v>
   <v>       0.24482497       0.50274517       0.24510318 </v>
   <v>       0.25058869       0.74536254       0.00560582 </v>
   <v>       0.00056771       0.49636232       0.50415064 </v>
   <v>       0.99976462       0.75473331       0.74762719 </v>
   <v>       0.25390569       0.50024636       0.75102774 </v>
   <v>       0.25132524       0.74457168       0.49514640 </v>
   <v>       0.49838444       0.99820598       0.00128607 </v>
   <v>       0.50175617       0.25065766       0.25143005 </v>
   <v>       0.74201197       0.99899276       0.24974906 </v>
   <v>       0.75254797       0.25016654       0.00096898 </v>
   <v>       0.49855184       0.00155031       0.50337872 </v>
   <v>       0.49718758       0.24671026       0.74818992 </v>
   <v>       0.75495457       0.00203331       0.75638747 </v>
   <v>       0.75087636       0.25307904       0.50413367 </v>
   <v>       0.50082497       0.50443746       0.00241161 </v>
   <v>       0.50870062       0.74898334       0.24870119 </v>
   <v>       0.74348236       0.50304390       0.25103602 </v>
   <v>       0.75301214       0.75345385       0.00134194 </v>
   <v>       0.49213432       0.50381693       0.49979740 </v>
   <v>       0.50092408       0.75204323       0.74891477 </v>
   <v>       0.75032389       0.49507668       0.74814429 </v>
   <v>       0.75163534       0.75150322       0.48551960 </v>
  </varray>
 </structure>
 <calculation>
  <scstep>
   <time name="dav">   14.17   14.36</time>
   <time name="total">   14.26   14.45</time>
   <energy>
    <i name="alphaZ">    354.85177120 </i>
    <i name="ewald">  -9074.59509376 </i>
    <i name="hartreedc">   -675.09251113 </i>
    <i name="XCdc">    145.91873119 </i>
    <i name="pawpsdc">   6292.66707184 </i>
    <i name="pawaedc">  -5747.90303932 </i>
    <i name="eentropy">      0.01131471 </i>
    <i name="bandstr">   1368.75413739 </i>
    <i name="atom">   8006.17504320 </i>
    <i name="e_fr_energy">    670.78742532 </i>
    <i name="e_wo_entrp">    670.77611061 </i>
    <i name="e_0_energy">    670.78365375 </i>
   </energy>
  </scstep>
  <scstep>
   <time name="dav">   16.34   16.38</time>
   <time name="total">   16.73   16.77</time>
   <energy>
    <i name="e_fr_energy">   -461.42618066 </i>
    <i name="e_wo_entrp">   -461.44533858 </i>
    <i name="e_0_energy">   -461.43256663 </i>
   </energy>
  </scstep>
  <scstep>
   <time name="dav">   15.60   15.67</time>
   <time name="total">   15.61   15.67</time>
   <energy>
    <i name="e_fr_energy">   -536.65371130 </i>
    <i name="e_wo_entrp">   -536.67640227 </i>
    <i name="e_0_energy">   -536.66127495 </i>
   </energy>
  </scstep>
  <scstep>
   <time name="dav">   15.66   15.77</time>
   <time name="total">   15.67   15.77</time>
   <energy>
    <i name="e_fr_energy">   -538.32619492 </i>
    <i name="e_wo_entrp">   -538.34949639 </i>
    <i name="e_0_energy">   -538.33396208 </i>
   </energy>
  </scstep>
  <scstep>
   <time name="dav">   15.86   15.93</time>
   <time name="total">   16.09   16.16</time>
   <energy>
    <i name="e_fr_energy">   -538.37203823 </i>
    <i name="e_wo_entrp">   -538.39530587 </i>
    <i name="e_0_energy">   -538.37979411 </i>
   </energy>
  </scstep>
  <scstep>
   <time name="dav">   14.69   14.74</time>
   <time name="total">   15.01   15.08</time>
   <energy>
    <i name="e_fr_energy">   -481.25086018 </i>
    <i name="e_wo_entrp">   -481.26263051 </i>
    <i name="e_0_energy">   -481.25478362 </i>
   </energy>
  </scstep>
  <scstep>
   <time name="dav">   16.52   16.61</time>
   <time name="total">   17.06   17.20</time>
   <energy>
    <i name="e_fr_energy">   -479.90214404 </i>
    <i name="e_wo_entrp">   -479.91258168 </i>
    <i name="e_0_energy">   -479.90562325 </i>
   </energy>
  </scstep>
  <scstep>
   <time name="dav">   29.07   29.14</time>
   <time name="total">   29.79   29.93</time>
   <energy>
    <i name="e_fr_energy">   -479.67199322 </i>
    <i name="e_wo_entrp">   -479.68261679 </i>
    <i name="e_0_energy">   -479.67553441 </i>
   </energy>
  </scstep>
  <scstep>
   <time name="dav">   15.09   15.12</time>
   <time name="total">   15.47   15.54</time>
   <energy>
    <i name="e_fr_energy">   -479.65521227 </i>
    <i name="e_wo_entrp">   -479.66574577 </i>
    <i name="e_0_energy">   -479.65872343 </i>
   </energy>
  </scstep>
  <scstep>
   <time name="dav">   15.36   15.39</time>
   <time name="total">   15.80   15.90</time>
   <energy>
    <i name="e_fr_energy">   -479.65813350 </i>
    <i name="e_wo_entrp">   -479.66867841 </i>
    <i name="e_0_energy">   -479.66164847 </i>
   </energy>
  </scstep>
  <scstep>
   <time name="dav">   22.37   22.41</time>
   <time name="total">   23.05   23.13</time>
   <energy>
    <i name="e_fr_energy">   -479.65918646 </i>
    <i name="e_wo_entrp">   -479.66972239 </i>
    <i name="e_0_energy">   -479.66269844 </i>
   </energy>
  </scstep>
  <scstep>
   <time name="dav">   16.06   16.10</time>
   <time name="total">   16.44   16.48</time>
   <energy>
    <i name="e_fr_energy">   -479.65929917 </i>
    <i name="e_wo_entrp">   -479.66983092 </i>
    <i name="e_0_energy">   -479.66280976 </i>
   </energy>
  </scstep>
  <scstep>
   <time name="dav">   14.76   14.79</time>
   <time name="total">   15.12   15.17</time>
   <energy>
    <i name="e_fr_energy">   -479.65931875 </i>
    <i name="e_wo_entrp">   -479.66985371 </i>
    <i name="e_0_energy">   -479.66283041 </i>
   </energy>
  </scstep>
  <scstep>
   <time name="dav">   14.93   14.97</time>
   <time name="total">   15.48   15.51</time>
   <energy>
    <i name="e_fr_energy">   -479.65932331 </i>
    <i name="e_wo_entrp">   -479.66985752 </i>
    <i name="e_0_energy">   -479.66283471 </i>
   </energy>
  </scstep>
  <scstep>
   <time name="dav">   14.81   14.87</time>
   <time name="total">   15.22   15.32</time>
   <energy>
    <i name="e_fr_energy">   -479.65932497 </i>
    <i name="e_wo_entrp">   -479.66985886 </i>
    <i name="e_0_energy">   -479.66283626 </i>
   </energy>
  </scstep>
  <scstep>
   <time name="dav">   15.14   15.20</time>
   <time name="total">   15.51   15.57</time>
   <energy>
    <i name="e_fr_energy">   -479.65932489 </i>
    <i name="e_wo_entrp">   -479.66985906 </i>
    <i name="e_0_energy">   -479.66283628 </i>
   </energy>
  </scstep>
  <scstep>
   <time name="dav">   15.62   15.66</time>
   <time name="total">   16.02   16.08</time>
   <energy>
    <i name="e_fr_energy">   -479.65932527 </i>
    <i name="e_wo_entrp">   -479.66985938 </i>
    <i name="e_0_energy">   -479.66283664 </i>
   </energy>
  </scstep>
  <scstep>
   <time name="dav">   12.51   12.53</time>
   <time name="total">   13.18   13.23</time>
   <energy>
    <i name="e_fr_energy">   -479.65932531 </i>
    <i name="e_wo_entrp">   -479.66985939 </i>
    <i name="e_0_energy">   -479.66283667 </i>
   </energy>
  </scstep>
  <scstep>
   <time name="dav">    9.04    9.07</time>
   <time name="total">    9.47    9.54</time>
   <energy>
    <i name="e_fr_energy">   -479.65932529 </i>
    <i name="e_wo_entrp">   -479.66985936 </i>
    <i name="e_0_energy">   -479.66283665 </i>
   </energy>
  </scstep>
  <scstep>
   <time name="dav">    8.99    9.02</time>
   <time name="total">    9.05    9.08</time>
   <energy>
    <i name="alphaZ">    354.85177120 </i>
    <i name="ewald">  -9074.59509376 </i>
    <i name="hartreedc">  -1028.57821485 </i>
    <i name="XCdc">    179.38842103 </i>
    <i name="pawpsdc">  33212.92956891 </i>
    <i name="pawaedc"> -32673.92237839 </i>
    <i name="eentropy">      0.01053408 </i>
    <i name="bandstr">    544.08102327 </i>
    <i name="atom">   8006.17504320 </i>
    <i name="e_fr_energy">   -479.65932530 </i>
    <i name="e_wo_entrp">   -479.66985938 </i>
    <i name="e_0_energy">   -479.66283666 </i>
   </energy>
  </scstep>
  <structure>
   <crystal>
    <varray name="basis" >
     <v>       8.74331558       0.00000000       0.00000000 </v>
     <v>       0.00000000       8.74331558       0.00000000 </v>
     <v>       0.00000000       0.00000000       8.74331558 </v>
    </varray>
    <i name="volume">    668.38771987 </i>
    <varray name="rec_basis" >
     <v>       0.11437309       0.00000000       0.00000000 </v>
     <v>       0.00000000       0.11437309       0.00000000 </v>
     <v>       0.00000000       0.00000000       0.11437309 </v>
    </varray>
   </crystal>
   <varray name="positions" >
    <v>       0.11669620       0.12398768       0.11911460 </v>
    <v>       0.13033828       0.37596709       0.37448619 </v>
    <v>       0.37780900       0.12308139       0.38050263 </v>
    <v>       0.37108123       0.37203806       0.12871189 </v>
    <v>       0.12589320       0.13112658       0.62830060 </v>
    <v>       0.12400609       0.37765566       0.87946208 </v>
    <v>       0.37644556       0.12714845       0.87375242 </v>
    <v>       0.36825823       0.37523418       0.62628327 </v>
    <v>       0.12677529       0.62253910       0.12617922 </v>
    <v>       0.11919629       0.87624129       0.38020584 </v>
    <v>       0.36865816       0.62387176       0.37873841 </v>
    <v>       0.37454489       0.87522546       0.12565241 </v>
    <v>       0.12162687       0.63149115       0.62194096 </v>
    <v>       0.12303698       0.86865011       0.87350395 </v>
    <v>       0.38316104       0.62665585       0.87407298 </v>
    <v>       0.37299096       0.87194057       0.63304590 </v>
    <v>       0.62870655       0.12010000       0.12335532 </v>
    <v>       0.61930164       0.37293532       0.37112059 </v>
    <v>       0.87638327       0.12005566       0.37305391 </v>
    <v>       0.88130806       0.37403925       0.12892384 </v>
    <v>       0.62341258       0.12918732       0.62778200 </v>
    <v>       0.62667692       0.37833645       0.87362280 </v>
    <v>       0.87604657       0.12143691       0.87591840 </v>
    <v>       0.87575041       0.37408939       0.62588136 </v>
    <v>       0.63074581       0.62695978       0.12596617 </v>
    <v>       0.62628781       0.87800312       0.37391503 </v>
    <v>       0.87382087       0.62392026       0.37667492 </v>
    <v>       0.87293279       0.87711678       0.12391305 </v>
    <v>       0.62270600       0.62472770       0.62423564 </v>
    <v>       0.61716044       0.87620107       0.87468481 </v>
    <v>       0.87362009       0.62517900       0.87588546 </v>
    <v>       0.87730414       0.87421958       0.62427252 </v>
    <v>       0.00274981       0.99009525       0.99865430 </v>
    <v>       0.00101077       0.24561648       0.24975446 </v>
    <v>       0.25492083       0.99701717       0.24631563 </v>
    <v>       0.24851483       0.24945287       0.00170851 </v>
    <v>       0.99856180       0.99745152       0.50492225 </v>
    <v>       0.00092769       0.25067977       0.75137305 </v>
    <v>       0.24629237       0.99527885       0.75025536 </v>
    <v>       0.24447538       0.24734896       0.51091376 </v>
    <v>       0.99974358       0.49637833       0.00587500 </v>
    <v>       0.99270966       0.74478616       0.24630060 </v>
    <v>       0.24482497       0.50274517       0.24510318 </v>
    <v>       0.25058869       0.74536254       0.00560582 </v>
    <v>       0.00056771       0.49636232       0.50415064 </v>
    <v>       0.99976462       0.75473331       0.74762719 </v>
    <v>       0.25390569       0.50024636       0.75102774 </v>
    <v>       0.25132524       0.74457168       0.49514640 </v>
    <v>       0.49838444       0.99820598       0.00128607 </v>
    <v>       0.50175617       0.25065766       0.25143005 </v>
    <v>       0.74201197       0.99899276       0.24974906 </v>
    <v>       0.75254797       0.25016654       0.00096898 </v>
    <v>       0.49855184       0.00155031       0.50337872 </v>
    <v>       0.49718758       0.24671026       0.74818992 </v>
    <v>       0.75495457       0.00203331       0.75638747 </v>
    <v>       0.75087636       0.25307904       0.50413367 </v>
    <v>       0.50082497       0.50443746       0.00241161 </v>
    <v>       0.50870062       0.74898334       0.24870119 </v>
    <v>       0.74348236       0.50304390       0.25103602 </v>
    <v>       0.75301214       0.75345385       0.00134194 </v>
    <v>       0.49213432       0.50381693       0.49979740 </v>
    <v>       0.50092408       0.75204323       0.74891477 </v>
    <v>       0.75032389       0.49507668       0.74814429 </v>
    <v>       0.75163534       0.75150322       0.48551960 </v>
   </varray>
  </structure>
  <varray name="forces" >
   <v>       1.85575362      -0.63435683       0.59531510 </v>
   <v>      -1.16770582      -0.66903960       0.39638036 </v>
   <v>      -0.81072826       0.33070350      -0.68866669 </v>
   <v>       0.74670581       0.76166525      -0.55378832 </v>
   <v>      -1.07762839      -2.01181137       0.55099034 </v>
   <v>       0.28240870      -0.17437503      -0.62500168 </v>
   <v>      -0.87590530      -0.82377894       0.61787721 </v>
   <v>       1.08467429      -0.15854749       0.06714331 </v>
   <v>      -1.05100456       0.71277024      -0.34555841 </v>
   <v>       1.10983162      -0.72655078      -1.46169111 </v>
   <v>       1.39458184       0.10619814      -2.10336559 </v>
   <v>       0.57452256      -0.86736836      -0.09164075 </v>
   <v>       0.65190383      -1.40073302       0.69359866 </v>
   <v>       0.77300822       0.38983057       0.72855363 </v>
   <v>      -1.33686501      -0.18109341       0.67883706 </v>
   <v>       0.01224009       0.27967301      -1.88786085 </v>
   <v>      -1.11386660       1.13006804      -0.00099178 </v>
   <v>       0.86350273       1.09555127       1.23996834 </v>
   <v>      -0.71037827       0.62688885       0.75930552 </v>
   <v>      -1.64910703       0.09918869       0.11449228 </v>
   <v>       0.75816826      -0.82387365      -0.29400245 </v>
   <v>      -0.48907310      -0.97072832       0.63665185 </v>
   <v>       0.68663070       0.60317045       0.35028087 </v>
   <v>       0.14843564      -0.08510233       0.11629676 </v>
   <v>      -0.81671452       0.07852600      -0.30250377 </v>
   <v>      -0.86057340      -0.36409923       0.19370329 </v>
   <v>       0.11192844      -0.83995175      -0.80614181 </v>
   <v>      -0.00383757      -0.63015805       0.42561653 </v>
   <v>       0.54725920       0.19724385      -0.78176653 </v>
   <v>       1.76642324      -0.06313745       0.33756967 </v>
   <v>       0.40216417      -0.10586256      -0.09437385 </v>
   <v>      -1.26334354       0.29495613       0.19314660 </v>
   <v>      -0.63221266       1.38245728       0.03618895 </v>
   <v>       0.05952088       0.27994612       0.68729214 </v>
   <v>      -1.72610249       0.86845966       1.48587930 </v>
   <v>      -0.05716754      -0.16161274      -0.47449731 </v>
   <v>       0.25299028       0.93022538      -0.77348878 </v>
   <v>      -0.12619501       0.06040959       0.74706456 </v>
   <v>       0.59195914       0.89426339       0.50057068 </v>
   <v>       1.40356990       0.92779540      -2.54483337 </v>
   <v>      -0.15821045       0.81309348      -1.21921131 </v>
   <v>       1.13533203       1.10555072       0.95005321 </v>
   <v>       1.22252394      -1.16918897       1.63580274 </v>
   <v>       0.35014734       0.40074501      -1.41384867 </v>
   <v>       0.37633521       0.69979947      -0.81895422 </v>
   <v>      -0.48325114      -1.68690433       0.19417680 </v>
   <v>      -1.16405472       0.73351802       0.32446860 </v>
   <v>      -1.20649397       1.87194996       1.24416036 </v>
   <v>      -0.01088036       0.66543881      -0.60272486 </v>
   <v>      -0.80057041      -0.96788923      -0.30763205 </v>
   <v>       2.08204634       0.59407035      -0.00014122 </v>
   <v>      -0.01342921       0.02950836      -0.11494905 </v>
   <v>       0.18026201      -0.49025581       0.48650488 </v>
   <v>       0.24348263       1.28458320       0.59757042 </v>
   <v>      -1.48491740      -0.66449549      -1.26504732 </v>
   <v>      -0.35404693      -0.86493769      -1.29214482 </v>
   <v>       0.17557529      -1.12122301      -0.31907656 </v>
   <v>      -1.83342738       0.20314366       0.63211588 </v>
   <v>       1.46396489      -1.34444282       0.28486351 </v>
   <v>      -0.68102147      -0.35478004      -1.15228139 </v>
   <v>       0.77786304      -1.07372119       0.30770636 </v>
   <v>       0.35604872      -0.44469894       0.08586648 </v>
   <v>      -0.16334241       1.56468417       0.32181329 </v>
   <v>      -0.31970972      -0.14135756       3.11835896 </v>
  </varray>
  <varray name="stress" >
   <v>       8.80242485      -1.64154701      -5.24636743 </v>
   <v>      -1.64154700      10.53310910      -0.12478082 </v>
   <v>      -5.24636746      -0.12478077       9.38842975 </v>
  </varray>
  <energy>
   <i name="e_fr_energy">   -479.65932530 </i>
   <i name="e_wo_entrp">   -479.66985938 </i>
   <i name="e_0_energy">   -479.66283666 </i>
  </energy>
  <time name="totalsc">  331.82  333.41</time>
  <eigenvalues>
   <array>
    <dimension dim="1">band</dimension>
    <dimension dim="2">kpoint</dimension>
    <dimension dim="3">spin</dimension>
    <field>eigene</field>
    <field>occ</field>
    <set>
     <set comment="spin 1">
      <set comment="kpoint 1">
       <r>   -7.3702    1.0000 </r>
       <r>   -6.0038    1.0000 </r>
       <r>   -5.8342    1.0000 </r>
       <r>   -5.8219    1.0000 </r>
       <r>   -5.7807    1.0000 </r>
       <r>   -5.7020    1.0000 </r>
       <r>   -5.5829    1.0000 </r>
       <r>   -4.6581    1.0000 </r>
       <r>   -4.5819    1.0000 </r>
       <r>   -4.5275    1.0000 </r>
       <r>   -4.4501    1.0000 </r>
       <r>   -4.4180    1.0000 </r>
       <r>   -4.3888    1.0000 </r>
       <r>   -4.3418    1.0000 </r>
       <r>   -4.2939    1.0000 </r>
       <r>   -4.2829    1.0000 </r>
       <r>   -4.2081    1.0000 </r>
       <r>   -4.1036    1.0000 </r>
       <r>   -4.0765    1.0000 </r>
       <r>   -3.8908    1.0000 </r>
       <r>   -3.8254    1.0000 </r>
       <r>   -3.7362    1.0000 </r>
       <r>   -3.7164    1.0000 </r>
       <r>   -2.4722    1.0000 </r>
       <r>   -2.3924    1.0000 </r>
       <r>   -2.3305    1.0000 </r>
       <r>   -2.2595    1.0000 </r>
       <r>   -2.2061    1.0000 </r>
       <r>   -2.1608    1.0000 </r>
       <r>   -2.0975    1.0000 </r>
       <r>   -1.9993    1.0000 </r>
       <r>   -1.9263    1.0000 </r>
       <r>   -0.5783    1.0000 </r>
       <r>   -0.5504    1.0000 </r>
       <r>   -0.4449    1.0000 </r>
       <r>   -0.4303    1.0000 </r>
       <r>    0.1996    1.0000 </r>
       <r>    0.2210    1.0000 </r>
       <r>    0.2479    1.0000 </r>
       <r>    0.9208    1.0000 </r>
       <r>    0.9328    1.0000 </r>
       <r>    0.9448    1.0000 </r>
       <r>    0.9829    1.0000 </r>
       <r>    1.0043    1.0000 </r>
       <r>    1.0395    1.0000 </r>
       <r>    1.8395    1.0000 </r>
       <r>    1.9046    1.0000 </r>
       <r>    1.9607    1.0000 </r>
       <r>    1.9867    1.0000 </r>
       <r>    2.0324    1.0000 </r>
       <r>    2.0526    1.0000 </r>
       <r>    2.0738    1.0000 </r>
       <r>    2.1226    1.0000 </r>
       <r>    2.1334    1.0000 </r>
       <r>    2.1697    1.0000 </r>
       <r>    2.2011    1.0000 </r>
       <r>    2.2689    1.0000 </r>
       <r>    2.8577    1.0000 </r>
       <r>    2.9804    1.0000 </r>
       <r>    3.0071    1.0000 </r>
       <r>    3.0428    1.0000 </r>
       <r>    3.0688    1.0000 </r>
       <r>    3.1970    1.0000 </r>
       <r>    3.2641    1.0000 </r>
       <r>    3.3001    1.0000 </r>
       <r>    3.3189    1.0000 </r>
       <r>    3.3572    1.0000 </r>
       <r>    3.3739    1.0000 </r>
       <r>    3.3893    1.0000 </r>
       <r>    3.5593    1.0000 </r>
       <r>    3.5870    1.0000 </r>
       <r>    3.5889    1.0000 </r>
       <r>    3.6262    1.0000 </r>
       <r>    3.6651    1.0000 </r>
       <r>    3.6896    1.0000 </r>
       <r>    3.7047    1.0000 </r>
       <r>    3.7218    1.0000 </r>
       <r>    3.7555    1.0000 </r>
       <r>    3.7829    1.0000 </r>
       <r>    3.8249    1.0000 </r>
       <r>    3.8366    1.0000 </r>
       <r>    4.5369    1.0000 </r>
       <r>    4.5761    1.0000 </r>
       <r>    4.6111    1.0000 </r>
       <r>    4.6586    1.0000 </r>
       <r>    4.6772    1.0000 </r>
       <r>    4.7016    1.0000 </r>
       <r>    4.8208    1.0000 </r>
       <r>    4.8341    1.0000 </r>
       <r>    4.8449    1.0000 </r>
       <r>    4.8702    1.0000 </r>
       <r>    4.8848    1.0000 </r>
       <r>    4.8991    1.0000 </r>
       <r>    5.8609    1.0000 </r>
       <r>    5.9269    1.0000 </r>
       <r>    5.9592    1.0000 </r>
       <r>    6.0061    1.0000 </r>
       <r>    6.0314    1.0000 </r>
       <r>    6.0490    1.0000 </r>
       <r>    6.0624    1.0000 </r>
       <r>    6.0879    1.0000 </r>
       <r>    6.1345    1.0000 </r>
       <r>    6.1527    1.0000 </r>
       <r>    6.2541    1.0000 </r>
       <r>    6.2729    1.0000 </r>
       <r>    6.5957    1.0000 </r>
       <r>    6.6334    1.0000 </r>
       <r>    6.6951    1.0000 </r>
       <r>    6.7467    1.0000 </r>
       <r>    6.7695    1.0000 </r>
       <r>    6.7988    1.0000 </r>
       <r>    6.8079    1.0000 </r>
       <r>    6.8347    1.0000 </r>
       <r>    6.8469    1.0000 </r>
       <r>    6.9045    1.0000 </r>
       <r>    6.9257    1.0000 </r>
       <r>    6.9442    1.0000 </r>
       <r>    6.9786    1.0000 </r>
       <r>    6.9918    1.0000 </r>
       <r>    7.0123    1.0000 </r>
       <r>    7.0394    1.0000 </r>
       <r>    7.0838    1.0000 </r>
       <r>    7.0899    1.0000 </r>
       <r>    7.1146    1.0000 </r>
       <r>    7.1383    1.0000 </r>
       <r>    7.9894    1.0188 </r>
       <r>    8.0492    0.9406 </r>
       <r>    8.0884    0.8429 </r>
       <r>    9.2452   -0.0000 </r>
       <r>    9.3443   -0.0000 </r>
       <r>    9.4490   -0.0000 </r>
       <r>   11.8743   -0.0000 </r>
       <r>   11.9318   -0.0000 </r>
       <r>   11.9540   -0.0000 </r>
       <r>   11.9920   -0.0000 </r>
       <r>   12.0229   -0.0000 </r>
       <r>   12.0633   -0.0000 </r>
       <r>   12.2280   -0.0000 </r>
       <r>   12.2585   -0.0000 </r>
       <r>   12.2859   -0.0000 </r>
       <r>   12.9792   -0.0000 </r>
       <r>   12.9958   -0.0000 </r>
       <r>   13.0946   -0.0000 </r>
       <r>   13.1101   -0.0000 </r>
       <r>   13.1806   -0.0000 </r>
       <r>   13.2154   -0.0000 </r>
       <r>   13.2409   -0.0000 </r>
       <r>   13.2621   -0.0000 </r>
       <r>   13.2826   -0.0000 </r>
       <r>   13.3205   -0.0000 </r>
       <r>   13.3283   -0.0000 </r>
       <r>   13.3526   -0.0000 </r>
       <r>   13.3967   -0.0000 </r>
       <r>   13.4258   -0.0000 </r>
       <r>   13.4710   -0.0000 </r>
       <r>   13.4841   -0.0000 </r>
       <r>   13.5303   -0.0000 </r>
       <r>   13.5901   -0.0000 </r>
       <r>   13.5972   -0.0000 </r>
       <r>   13.6367   -0.0000 </r>
       <r>   13.6730    0.0000 </r>
       <r>   13.7048    0.0000 </r>
       <r>   14.0278    0.0000 </r>
       <r>   14.1321    0.0000 </r>
       <r>   14.2462    0.0000 </r>
       <r>   14.2565    0.0000 </r>
       <r>   14.2661    0.0000 </r>
       <r>   14.2994    0.0000 </r>
      </set>
      <set comment="kpoint 2">
       <r>   -7.1924    1.0000 </r>
       <r>   -6.6649    1.0000 </r>
       <r>   -5.8034    1.0000 </r>
       <r>   -5.6592    1.0000 </r>
       <r>   -5.5816    1.0000 </r>
       <r>   -5.4745    1.0000 </r>
       <r>   -5.2964    1.0000 </r>
       <r>   -5.1757    1.0000 </r>
       <r>   -5.0679    1.0000 </r>
       <r>   -4.9549    1.0000 </r>
       <r>   -4.6473    1.0000 </r>
       <r>   -4.3530    1.0000 </r>
       <r>   -4.3215    1.0000 </r>
       <r>   -4.2114    1.0000 </r>
       <r>   -4.1638    1.0000 </r>
       <r>   -4.0621    1.0000 </r>
       <r>   -4.0130    1.0000 </r>
       <r>   -3.9141    1.0000 </r>
       <r>   -3.8856    1.0000 </r>
       <r>   -3.5814    1.0000 </r>
       <r>   -3.4192    1.0000 </r>
       <r>   -3.3480    1.0000 </r>
       <r>   -3.2748    1.0000 </r>
       <r>   -3.1693    1.0000 </r>
       <r>   -2.7027    1.0000 </r>
       <r>   -2.5643    1.0000 </r>
       <r>   -2.4809    1.0000 </r>
       <r>   -2.3708    1.0000 </r>
       <r>   -2.2859    1.0000 </r>
       <r>   -2.2553    1.0000 </r>
       <r>   -2.1739    1.0000 </r>
       <r>   -2.1280    1.0000 </r>
       <r>   -0.1297    1.0000 </r>
       <r>   -0.0903    1.0000 </r>
       <r>    0.0062    1.0000 </r>
       <r>    0.0308    1.0000 </r>
       <r>    0.3442    1.0000 </r>
       <r>    0.3896    1.0000 </r>
       <r>    0.6893    1.0000 </r>
       <r>    0.7002    1.0000 </r>
       <r>    0.9198    1.0000 </r>
       <r>    0.9535    1.0000 </r>
       <r>    0.9944    1.0000 </r>
       <r>    1.0555    1.0000 </r>
       <r>    1.0673    1.0000 </r>
       <r>    1.0966    1.0000 </r>
       <r>    1.1631    1.0000 </r>
       <r>    1.2029    1.0000 </r>
       <r>    1.2695    1.0000 </r>
       <r>    1.3228    1.0000 </r>
       <r>    1.3917    1.0000 </r>
       <r>    1.4693    1.0000 </r>
       <r>    1.4999    1.0000 </r>
       <r>    2.6019    1.0000 </r>
       <r>    2.6420    1.0000 </r>
       <r>    2.7071    1.0000 </r>
       <r>    2.7596    1.0000 </r>
       <r>    2.8588    1.0000 </r>
       <r>    2.8793    1.0000 </r>
       <r>    2.9087    1.0000 </r>
       <r>    2.9577    1.0000 </r>
       <r>    2.9907    1.0000 </r>
       <r>    3.0123    1.0000 </r>
       <r>    3.0670    1.0000 </r>
       <r>    3.0737    1.0000 </r>
       <r>    3.1219    1.0000 </r>
       <r>    3.5040    1.0000 </r>
       <r>    3.5179    1.0000 </r>
       <r>    3.6447    1.0000 </r>
       <r>    3.6553    1.0000 </r>
       <r>    3.9321    1.0000 </r>
       <r>    3.9767    1.0000 </r>
       <r>    4.0528    1.0000 </r>
       <r>    4.0666    1.0000 </r>
       <r>    4.2626    1.0000 </r>
       <r>    4.3114    1.0000 </r>
       <r>    4.3491    1.0000 </r>
       <r>    4.3661    1.0000 </r>
       <r>    4.3915    1.0000 </r>
       <r>    4.4115    1.0000 </r>
       <r>    4.4788    1.0000 </r>
       <r>    4.5188    1.0000 </r>
       <r>    4.5673    1.0000 </r>
       <r>    4.6419    1.0000 </r>
       <r>    4.6701    1.0000 </r>
       <r>    4.7313    1.0000 </r>
       <r>    4.7611    1.0000 </r>
       <r>    4.7912    1.0000 </r>
       <r>    4.8630    1.0000 </r>
       <r>    4.9217    1.0000 </r>
       <r>    4.9919    1.0000 </r>
       <r>    5.0407    1.0000 </r>
       <r>    5.3626    1.0000 </r>
       <r>    5.3959    1.0000 </r>
       <r>    5.5291    1.0000 </r>
       <r>    5.5862    1.0000 </r>
       <r>    5.6278    1.0000 </r>
       <r>    5.7034    1.0000 </r>
       <r>    5.8105    1.0000 </r>
       <r>    5.8601    1.0000 </r>
       <r>    5.9348    1.0000 </r>
       <r>    5.9694    1.0000 </r>
       <r>    6.0899    1.0000 </r>
       <r>    6.1835    1.0000 </r>
       <r>    6.2685    1.0000 </r>
       <r>    6.3264    1.0000 </r>
       <r>    6.3686    1.0000 </r>
       <r>    6.4055    1.0000 </r>
       <r>    6.5089    1.0000 </r>
       <r>    6.5484    1.0000 </r>
       <r>    6.5971    1.0000 </r>
       <r>    6.7167    1.0000 </r>
       <r>    6.7839    1.0000 </r>
       <r>    6.7915    1.0000 </r>
       <r>    6.8188    1.0000 </r>
       <r>    6.8526    1.0000 </r>
       <r>    6.8858    1.0000 </r>
       <r>    6.9063    1.0000 </r>
       <r>    6.9497    1.0000 </r>
       <r>    6.9528    1.0000 </r>
       <r>    6.9851    1.0000 </r>
       <r>    7.0028    1.0000 </r>
       <r>    7.0531    1.0000 </r>
       <r>    7.0629    1.0000 </r>
       <r>    7.1432    1.0000 </r>
       <r>    7.4976    1.0000 </r>
       <r>    7.6914    1.0015 </r>
       <r>    7.7473    1.0046 </r>
       <r>    9.6554   -0.0000 </r>
       <r>   10.1670   -0.0000 </r>
       <r>   10.1904   -0.0000 </r>
       <r>   10.6321   -0.0000 </r>
       <r>   11.9136   -0.0000 </r>
       <r>   11.9422   -0.0000 </r>
       <r>   12.4324   -0.0000 </r>
       <r>   12.5077   -0.0000 </r>
       <r>   12.5598   -0.0000 </r>
       <r>   12.6064   -0.0000 </r>
       <r>   12.6611   -0.0000 </r>
       <r>   12.7945   -0.0000 </r>
       <r>   12.9003   -0.0000 </r>
       <r>   12.9303   -0.0000 </r>
       <r>   12.9737   -0.0000 </r>
       <r>   13.0126   -0.0000 </r>
       <r>   13.0327   -0.0000 </r>
       <r>   13.0598   -0.0000 </r>
       <r>   13.0631   -0.0000 </r>
       <r>   13.1631   -0.0000 </r>
       <r>   13.1975   -0.0000 </r>
       <r>   13.2427   -0.0000 </r>
       <r>   13.4416   -0.0000 </r>
       <r>   13.5394   -0.0000 </r>
       <r>   13.5595   -0.0000 </r>
       <r>   13.6135   -0.0000 </r>
       <r>   13.6426    0.0000 </r>
       <r>   13.6786    0.0000 </r>
       <r>   13.7033    0.0000 </r>
       <r>   13.7326    0.0000 </r>
       <r>   13.7754    0.0000 </r>
       <r>   13.8788    0.0000 </r>
       <r>   13.9785    0.0000 </r>
       <r>   14.0137    0.0000 </r>
       <r>   14.0948    0.0000 </r>
       <r>   14.4322    0.0000 </r>
       <r>   14.6192    0.0000 </r>
       <r>   14.7304    0.0000 </r>
       <r>   14.7935    0.0000 </r>
       <r>   14.8334    0.0000 </r>
      </set>
      <set comment="kpoint 3">
       <r>   -7.1958    1.0000 </r>
       <r>   -6.6585    1.0000 </r>
       <r>   -5.7649    1.0000 </r>
       <r>   -5.6577    1.0000 </r>
       <r>   -5.6265    1.0000 </r>
       <r>   -5.4938    1.0000 </r>
       <r>   -5.2497    1.0000 </r>
       <r>   -5.1513    1.0000 </r>
       <r>   -5.1244    1.0000 </r>
       <r>   -4.9877    1.0000 </r>
       <r>   -4.6266    1.0000 </r>
       <r>   -4.3353    1.0000 </r>
       <r>   -4.2984    1.0000 </r>
       <r>   -4.2230    1.0000 </r>
       <r>   -4.1824    1.0000 </r>
       <r>   -4.0607    1.0000 </r>
       <r>   -4.0388    1.0000 </r>
       <r>   -3.8931    1.0000 </r>
       <r>   -3.8601    1.0000 </r>
       <r>   -3.5376    1.0000 </r>
       <r>   -3.4391    1.0000 </r>
       <r>   -3.3856    1.0000 </r>
       <r>   -3.2796    1.0000 </r>
       <r>   -3.1573    1.0000 </r>
       <r>   -2.6640    1.0000 </r>
       <r>   -2.5918    1.0000 </r>
       <r>   -2.5087    1.0000 </r>
       <r>   -2.4006    1.0000 </r>
       <r>   -2.2791    1.0000 </r>
       <r>   -2.2533    1.0000 </r>
       <r>   -2.1586    1.0000 </r>
       <r>   -2.1127    1.0000 </r>
       <r>   -0.1262    1.0000 </r>
       <r>   -0.0947    1.0000 </r>
       <r>    0.0064    1.0000 </r>
       <r>    0.0331    1.0000 </r>
       <r>    0.3376    1.0000 </r>
       <r>    0.3707    1.0000 </r>
       <r>    0.6950    1.0000 </r>
       <r>    0.7188    1.0000 </r>
       <r>    0.9297    1.0000 </r>
       <r>    0.9695    1.0000 </r>
       <r>    1.0059    1.0000 </r>
       <r>    1.0378    1.0000 </r>
       <r>    1.0553    1.0000 </r>
       <r>    1.0915    1.0000 </r>
       <r>    1.1475    1.0000 </r>
       <r>    1.1853    1.0000 </r>
       <r>    1.2494    1.0000 </r>
       <r>    1.3725    1.0000 </r>
       <r>    1.3869    1.0000 </r>
       <r>    1.4749    1.0000 </r>
       <r>    1.5120    1.0000 </r>
       <r>    2.6090    1.0000 </r>
       <r>    2.6656    1.0000 </r>
       <r>    2.6986    1.0000 </r>
       <r>    2.7440    1.0000 </r>
       <r>    2.8569    1.0000 </r>
       <r>    2.8985    1.0000 </r>
       <r>    2.9077    1.0000 </r>
       <r>    2.9465    1.0000 </r>
       <r>    2.9587    1.0000 </r>
       <r>    3.0093    1.0000 </r>
       <r>    3.0473    1.0000 </r>
       <r>    3.0826    1.0000 </r>
       <r>    3.1133    1.0000 </r>
       <r>    3.5192    1.0000 </r>
       <r>    3.5309    1.0000 </r>
       <r>    3.6347    1.0000 </r>
       <r>    3.6459    1.0000 </r>
       <r>    3.9413    1.0000 </r>
       <r>    3.9586    1.0000 </r>
       <r>    4.0437    1.0000 </r>
       <r>    4.0926    1.0000 </r>
       <r>    4.2962    1.0000 </r>
       <r>    4.3253    1.0000 </r>
       <r>    4.3390    1.0000 </r>
       <r>    4.3581    1.0000 </r>
       <r>    4.3998    1.0000 </r>
       <r>    4.4422    1.0000 </r>
       <r>    4.4620    1.0000 </r>
       <r>    4.5030    1.0000 </r>
       <r>    4.5710    1.0000 </r>
       <r>    4.6345    1.0000 </r>
       <r>    4.6737    1.0000 </r>
       <r>    4.7250    1.0000 </r>
       <r>    4.7583    1.0000 </r>
       <r>    4.7991    1.0000 </r>
       <r>    4.8694    1.0000 </r>
       <r>    4.9212    1.0000 </r>
       <r>    4.9799    1.0000 </r>
       <r>    5.0197    1.0000 </r>
       <r>    5.3463    1.0000 </r>
       <r>    5.4182    1.0000 </r>
       <r>    5.5674    1.0000 </r>
       <r>    5.5798    1.0000 </r>
       <r>    5.6159    1.0000 </r>
       <r>    5.6892    1.0000 </r>
       <r>    5.8237    1.0000 </r>
       <r>    5.8578    1.0000 </r>
       <r>    5.9047    1.0000 </r>
       <r>    5.9626    1.0000 </r>
       <r>    6.1344    1.0000 </r>
       <r>    6.1818    1.0000 </r>
       <r>    6.2500    1.0000 </r>
       <r>    6.3032    1.0000 </r>
       <r>    6.3579    1.0000 </r>
       <r>    6.4345    1.0000 </r>
       <r>    6.4602    1.0000 </r>
       <r>    6.5212    1.0000 </r>
       <r>    6.6039    1.0000 </r>
       <r>    6.7300    1.0000 </r>
       <r>    6.7821    1.0000 </r>
       <r>    6.7997    1.0000 </r>
       <r>    6.8171    1.0000 </r>
       <r>    6.8628    1.0000 </r>
       <r>    6.8847    1.0000 </r>
       <r>    6.9109    1.0000 </r>
       <r>    6.9335    1.0000 </r>
       <r>    6.9584    1.0000 </r>
       <r>    6.9832    1.0000 </r>
       <r>    7.0228    1.0000 </r>
       <r>    7.0586    1.0000 </r>
       <r>    7.1063    1.0000 </r>
       <r>    7.1490    1.0000 </r>
       <r>    7.5049    1.0000 </r>
       <r>    7.6682    1.0009 </r>
       <r>    7.7489    1.0048 </r>
       <r>    9.6400   -0.0000 </r>
       <r>   10.1757   -0.0000 </r>
       <r>   10.2091   -0.0000 </r>
       <r>   10.5983   -0.0000 </r>
       <r>   11.9171   -0.0000 </r>
       <r>   11.9337   -0.0000 </r>
       <r>   12.4259   -0.0000 </r>
       <r>   12.5282   -0.0000 </r>
       <r>   12.5954   -0.0000 </r>
       <r>   12.6409   -0.0000 </r>
       <r>   12.6825   -0.0000 </r>
       <r>   12.8251   -0.0000 </r>
       <r>   12.8601   -0.0000 </r>
       <r>   12.9222   -0.0000 </r>
       <r>   12.9545   -0.0000 </r>
       <r>   13.0100   -0.0000 </r>
       <r>   13.0192   -0.0000 </r>
       <r>   13.0459   -0.0000 </r>
       <r>   13.0909   -0.0000 </r>
       <r>   13.1161   -0.0000 </r>
       <r>   13.1670   -0.0000 </r>
       <r>   13.2107   -0.0000 </r>
       <r>   13.4821   -0.0000 </r>
       <r>   13.5387   -0.0000 </r>
       <r>   13.5819   -0.0000 </r>
       <r>   13.6159   -0.0000 </r>
       <r>   13.6268   -0.0000 </r>
       <r>   13.6536    0.0000 </r>
       <r>   13.7064    0.0000 </r>
       <r>   13.7468    0.0000 </r>
       <r>   13.7753    0.0000 </r>
       <r>   13.8676    0.0000 </r>
       <r>   13.9804    0.0000 </r>
       <r>   14.0230    0.0000 </r>
       <r>   14.0544    0.0000 </r>
       <r>   14.4432    0.0000 </r>
       <r>   14.6604    0.0000 </r>
       <r>   14.7297    0.0000 </r>
       <r>   14.7903    0.0000 </r>
       <r>   14.8648    0.0000 </r>
      </set>
      <set comment="kpoint 4">
       <r>   -7.1958    1.0000 </r>
       <r>   -6.6644    1.0000 </r>
       <r>   -5.7149    1.0000 </r>
       <r>   -5.6424    1.0000 </r>
       <r>   -5.6051    1.0000 </r>
       <r>   -5.5820    1.0000 </r>
       <r>   -5.1914    1.0000 </r>
       <r>   -5.1498    1.0000 </r>
       <r>   -5.1065    1.0000 </r>
       <r>   -5.0891    1.0000 </r>
       <r>   -4.5959    1.0000 </r>
       <r>   -4.3508    1.0000 </r>
       <r>   -4.3080    1.0000 </r>
       <r>   -4.2216    1.0000 </r>
       <r>   -4.1724    1.0000 </r>
       <r>   -4.0535    1.0000 </r>
       <r>   -3.9935    1.0000 </r>
       <r>   -3.9387    1.0000 </r>
       <r>   -3.8968    1.0000 </r>
       <r>   -3.4641    1.0000 </r>
       <r>   -3.4201    1.0000 </r>
       <r>   -3.3690    1.0000 </r>
       <r>   -3.3356    1.0000 </r>
       <r>   -3.1674    1.0000 </r>
       <r>   -2.5922    1.0000 </r>
       <r>   -2.5455    1.0000 </r>
       <r>   -2.5266    1.0000 </r>
       <r>   -2.4870    1.0000 </r>
       <r>   -2.3814    1.0000 </r>
       <r>   -2.2049    1.0000 </r>
       <r>   -2.1663    1.0000 </r>
       <r>   -2.0624    1.0000 </r>
       <r>   -0.1143    1.0000 </r>
       <r>   -0.0849    1.0000 </r>
       <r>    0.0008    1.0000 </r>
       <r>    0.0138    1.0000 </r>
       <r>    0.3459    1.0000 </r>
       <r>    0.3669    1.0000 </r>
       <r>    0.6961    1.0000 </r>
       <r>    0.7033    1.0000 </r>
       <r>    0.9236    1.0000 </r>
       <r>    0.9750    1.0000 </r>
       <r>    1.0136    1.0000 </r>
       <r>    1.0399    1.0000 </r>
       <r>    1.0597    1.0000 </r>
       <r>    1.0985    1.0000 </r>
       <r>    1.1378    1.0000 </r>
       <r>    1.1928    1.0000 </r>
       <r>    1.2442    1.0000 </r>
       <r>    1.3922    1.0000 </r>
       <r>    1.4202    1.0000 </r>
       <r>    1.4496    1.0000 </r>
       <r>    1.4813    1.0000 </r>
       <r>    2.6393    1.0000 </r>
       <r>    2.6562    1.0000 </r>
       <r>    2.6870    1.0000 </r>
       <r>    2.7258    1.0000 </r>
       <r>    2.8476    1.0000 </r>
       <r>    2.9141    1.0000 </r>
       <r>    2.9386    1.0000 </r>
       <r>    2.9449    1.0000 </r>
       <r>    2.9906    1.0000 </r>
       <r>    3.0065    1.0000 </r>
       <r>    3.0287    1.0000 </r>
       <r>    3.0625    1.0000 </r>
       <r>    3.0834    1.0000 </r>
       <r>    3.5150    1.0000 </r>
       <r>    3.5186    1.0000 </r>
       <r>    3.6152    1.0000 </r>
       <r>    3.6445    1.0000 </r>
       <r>    3.9662    1.0000 </r>
       <r>    4.0150    1.0000 </r>
       <r>    4.0274    1.0000 </r>
       <r>    4.0606    1.0000 </r>
       <r>    4.3111    1.0000 </r>
       <r>    4.3314    1.0000 </r>
       <r>    4.3546    1.0000 </r>
       <r>    4.3805    1.0000 </r>
       <r>    4.4003    1.0000 </r>
       <r>    4.4201    1.0000 </r>
       <r>    4.4437    1.0000 </r>
       <r>    4.4889    1.0000 </r>
       <r>    4.6033    1.0000 </r>
       <r>    4.6376    1.0000 </r>
       <r>    4.6706    1.0000 </r>
       <r>    4.6794    1.0000 </r>
       <r>    4.8014    1.0000 </r>
       <r>    4.8315    1.0000 </r>
       <r>    4.8571    1.0000 </r>
       <r>    4.8749    1.0000 </r>
       <r>    4.9818    1.0000 </r>
       <r>    5.0229    1.0000 </r>
       <r>    5.3533    1.0000 </r>
       <r>    5.3790    1.0000 </r>
       <r>    5.5708    1.0000 </r>
       <r>    5.5863    1.0000 </r>
       <r>    5.6365    1.0000 </r>
       <r>    5.6846    1.0000 </r>
       <r>    5.8625    1.0000 </r>
       <r>    5.8764    1.0000 </r>
       <r>    5.9019    1.0000 </r>
       <r>    5.9476    1.0000 </r>
       <r>    6.1740    1.0000 </r>
       <r>    6.2177    1.0000 </r>
       <r>    6.2462    1.0000 </r>
       <r>    6.2892    1.0000 </r>
       <r>    6.3203    1.0000 </r>
       <r>    6.4605    1.0000 </r>
       <r>    6.4799    1.0000 </r>
       <r>    6.4974    1.0000 </r>
       <r>    6.5440    1.0000 </r>
       <r>    6.6857    1.0000 </r>
       <r>    6.7302    1.0000 </r>
       <r>    6.8092    1.0000 </r>
       <r>    6.8243    1.0000 </r>
       <r>    6.8482    1.0000 </r>
       <r>    6.9030    1.0000 </r>
       <r>    6.9203    1.0000 </r>
       <r>    6.9427    1.0000 </r>
       <r>    6.9730    1.0000 </r>
       <r>    7.0123    1.0000 </r>
       <r>    7.0329    1.0000 </r>
       <r>    7.0680    1.0000 </r>
       <r>    7.1049    1.0000 </r>
       <r>    7.1279    1.0000 </r>
       <r>    7.4978    1.0000 </r>
       <r>    7.7088    1.0022 </r>
       <r>    7.7183    1.0027 </r>
       <r>    9.6618   -0.0000 </r>
       <r>   10.0977   -0.0000 </r>
       <r>   10.2552   -0.0000 </r>
       <r>   10.6201   -0.0000 </r>
       <r>   11.8504   -0.0000 </r>
       <r>   11.9883   -0.0000 </r>
       <r>   12.4224   -0.0000 </r>
       <r>   12.5552   -0.0000 </r>
       <r>   12.5920   -0.0000 </r>
       <r>   12.6343   -0.0000 </r>
       <r>   12.6726   -0.0000 </r>
       <r>   12.8545   -0.0000 </r>
       <r>   12.8897   -0.0000 </r>
       <r>   12.9217   -0.0000 </r>
       <r>   12.9525   -0.0000 </r>
       <r>   12.9871   -0.0000 </r>
       <r>   13.0292   -0.0000 </r>
       <r>   13.0536   -0.0000 </r>
       <r>   13.0710   -0.0000 </r>
       <r>   13.1005   -0.0000 </r>
       <r>   13.1556   -0.0000 </r>
       <r>   13.2118   -0.0000 </r>
       <r>   13.5021   -0.0000 </r>
       <r>   13.5459   -0.0000 </r>
       <r>   13.5712   -0.0000 </r>
       <r>   13.6084   -0.0000 </r>
       <r>   13.6361   -0.0000 </r>
       <r>   13.6512    0.0000 </r>
       <r>   13.6736    0.0000 </r>
       <r>   13.7206    0.0000 </r>
       <r>   13.7452    0.0000 </r>
       <r>   13.9425    0.0000 </r>
       <r>   13.9924    0.0000 </r>
       <r>   14.0109    0.0000 </r>
       <r>   14.0570    0.0000 </r>
       <r>   14.4276    0.0000 </r>
       <r>   14.7186    0.0000 </r>
       <r>   14.7497    0.0000 </r>
       <r>   14.8162    0.0000 </r>
       <r>   14.8401    0.0000 </r>
      </set>
      <set comment="kpoint 5">
       <r>   -7.0197    1.0000 </r>
       <r>   -6.5307    1.0000 </r>
       <r>   -6.4475    1.0000 </r>
       <r>   -5.9841    1.0000 </r>
       <r>   -5.5244    1.0000 </r>
       <r>   -5.3961    1.0000 </r>
       <r>   -5.0923    1.0000 </r>
       <r>   -5.0363    1.0000 </r>
       <r>   -4.9708    1.0000 </r>
       <r>   -4.8737    1.0000 </r>
       <r>   -4.6565    1.0000 </r>
       <r>   -4.5237    1.0000 </r>
       <r>   -4.4456    1.0000 </r>
       <r>   -4.3660    1.0000 </r>
       <r>   -4.0856    1.0000 </r>
       <r>   -3.9992    1.0000 </r>
       <r>   -3.6050    1.0000 </r>
       <r>   -3.5351    1.0000 </r>
       <r>   -3.5188    1.0000 </r>
       <r>   -3.4594    1.0000 </r>
       <r>   -3.3663    1.0000 </r>
       <r>   -3.2903    1.0000 </r>
       <r>   -3.1561    1.0000 </r>
       <r>   -3.0210    1.0000 </r>
       <r>   -2.9228    1.0000 </r>
       <r>   -2.8559    1.0000 </r>
       <r>   -2.7496    1.0000 </r>
       <r>   -2.6813    1.0000 </r>
       <r>   -2.6070    1.0000 </r>
       <r>   -2.3167    1.0000 </r>
       <r>   -2.2561    1.0000 </r>
       <r>   -2.2298    1.0000 </r>
       <r>   -0.2470    1.0000 </r>
       <r>   -0.1269    1.0000 </r>
       <r>    0.3908    1.0000 </r>
       <r>    0.4408    1.0000 </r>
       <r>    0.4946    1.0000 </r>
       <r>    0.5496    1.0000 </r>
       <r>    0.5801    1.0000 </r>
       <r>    0.6268    1.0000 </r>
       <r>    0.7109    1.0000 </r>
       <r>    0.7572    1.0000 </r>
       <r>    0.7864    1.0000 </r>
       <r>    0.8338    1.0000 </r>
       <r>    0.8925    1.0000 </r>
       <r>    0.9913    1.0000 </r>
       <r>    1.1704    1.0000 </r>
       <r>    1.2461    1.0000 </r>
       <r>    1.2623    1.0000 </r>
       <r>    1.3050    1.0000 </r>
       <r>    1.8824    1.0000 </r>
       <r>    1.9918    1.0000 </r>
       <r>    2.0403    1.0000 </r>
       <r>    2.0804    1.0000 </r>
       <r>    2.1276    1.0000 </r>
       <r>    2.1731    1.0000 </r>
       <r>    2.4064    1.0000 </r>
       <r>    2.5484    1.0000 </r>
       <r>    2.5899    1.0000 </r>
       <r>    2.6556    1.0000 </r>
       <r>    2.7030    1.0000 </r>
       <r>    3.1481    1.0000 </r>
       <r>    3.2185    1.0000 </r>
       <r>    3.2759    1.0000 </r>
       <r>    3.3325    1.0000 </r>
       <r>    3.3700    1.0000 </r>
       <r>    3.4864    1.0000 </r>
       <r>    3.5505    1.0000 </r>
       <r>    3.8573    1.0000 </r>
       <r>    3.9053    1.0000 </r>
       <r>    3.9575    1.0000 </r>
       <r>    3.9877    1.0000 </r>
       <r>    4.0546    1.0000 </r>
       <r>    4.1171    1.0000 </r>
       <r>    4.1721    1.0000 </r>
       <r>    4.2759    1.0000 </r>
       <r>    4.3047    1.0000 </r>
       <r>    4.4697    1.0000 </r>
       <r>    4.4806    1.0000 </r>
       <r>    4.6291    1.0000 </r>
       <r>    4.6851    1.0000 </r>
       <r>    4.8226    1.0000 </r>
       <r>    4.8559    1.0000 </r>
       <r>    4.8935    1.0000 </r>
       <r>    4.9030    1.0000 </r>
       <r>    4.9546    1.0000 </r>
       <r>    4.9823    1.0000 </r>
       <r>    5.0727    1.0000 </r>
       <r>    5.2402    1.0000 </r>
       <r>    5.2854    1.0000 </r>
       <r>    5.3204    1.0000 </r>
       <r>    5.3611    1.0000 </r>
       <r>    5.4209    1.0000 </r>
       <r>    5.4833    1.0000 </r>
       <r>    5.5124    1.0000 </r>
       <r>    5.5396    1.0000 </r>
       <r>    5.5687    1.0000 </r>
       <r>    5.6162    1.0000 </r>
       <r>    5.6396    1.0000 </r>
       <r>    5.7075    1.0000 </r>
       <r>    5.7829    1.0000 </r>
       <r>    5.8288    1.0000 </r>
       <r>    5.9855    1.0000 </r>
       <r>    6.0206    1.0000 </r>
       <r>    6.0601    1.0000 </r>
       <r>    6.0748    1.0000 </r>
       <r>    6.1764    1.0000 </r>
       <r>    6.1910    1.0000 </r>
       <r>    6.2765    1.0000 </r>
       <r>    6.3768    1.0000 </r>
       <r>    6.3941    1.0000 </r>
       <r>    6.4223    1.0000 </r>
       <r>    6.4719    1.0000 </r>
       <r>    6.5303    1.0000 </r>
       <r>    6.5799    1.0000 </r>
       <r>    6.6278    1.0000 </r>
       <r>    6.6910    1.0000 </r>
       <r>    6.7390    1.0000 </r>
       <r>    6.7969    1.0000 </r>
       <r>    6.8458    1.0000 </r>
       <r>    6.8872    1.0000 </r>
       <r>    6.9345    1.0000 </r>
       <r>    7.0071    1.0000 </r>
       <r>    7.3465    1.0000 </r>
       <r>    7.4878    1.0000 </r>
       <r>    7.5618    1.0001 </r>
       <r>    7.6598    1.0007 </r>
       <r>    7.9838    1.0224 </r>
       <r>   10.3704   -0.0000 </r>
       <r>   10.4011   -0.0000 </r>
       <r>   10.5472   -0.0000 </r>
       <r>   11.2839   -0.0000 </r>
       <r>   11.3423   -0.0000 </r>
       <r>   11.5877   -0.0000 </r>
       <r>   11.6537   -0.0000 </r>
       <r>   11.7685   -0.0000 </r>
       <r>   12.1173   -0.0000 </r>
       <r>   12.2010   -0.0000 </r>
       <r>   12.6740   -0.0000 </r>
       <r>   12.7954   -0.0000 </r>
       <r>   12.8507   -0.0000 </r>
       <r>   12.8798   -0.0000 </r>
       <r>   12.9959   -0.0000 </r>
       <r>   13.0456   -0.0000 </r>
       <r>   13.0837   -0.0000 </r>
       <r>   13.1249   -0.0000 </r>
       <r>   13.1974   -0.0000 </r>
       <r>   13.2249   -0.0000 </r>
       <r>   13.2747   -0.0000 </r>
       <r>   13.3211   -0.0000 </r>
       <r>   13.4929   -0.0000 </r>
       <r>   13.5257   -0.0000 </r>
       <r>   13.5792   -0.0000 </r>
       <r>   13.6038   -0.0000 </r>
       <r>   13.6704    0.0000 </r>
       <r>   13.6830    0.0000 </r>
       <r>   13.7715    0.0000 </r>
       <r>   13.8320    0.0000 </r>
       <r>   13.8789    0.0000 </r>
       <r>   13.8926    0.0000 </r>
       <r>   14.0307    0.0000 </r>
       <r>   14.0627    0.0000 </r>
       <r>   14.1376    0.0000 </r>
       <r>   14.6165    0.0000 </r>
       <r>   14.6847    0.0000 </r>
       <r>   14.7491    0.0000 </r>
       <r>   14.8690    0.0000 </r>
       <r>   14.9362    0.0000 </r>
      </set>
      <set comment="kpoint 6">
       <r>   -7.0267    1.0000 </r>
       <r>   -6.5378    1.0000 </r>
       <r>   -6.4271    1.0000 </r>
       <r>   -5.9628    1.0000 </r>
       <r>   -5.5000    1.0000 </r>
       <r>   -5.4666    1.0000 </r>
       <r>   -5.1018    1.0000 </r>
       <r>   -5.0070    1.0000 </r>
       <r>   -4.9824    1.0000 </r>
       <r>   -4.8919    1.0000 </r>
       <r>   -4.5854    1.0000 </r>
       <r>   -4.5590    1.0000 </r>
       <r>   -4.4613    1.0000 </r>
       <r>   -4.3839    1.0000 </r>
       <r>   -4.0686    1.0000 </r>
       <r>   -4.0176    1.0000 </r>
       <r>   -3.6135    1.0000 </r>
       <r>   -3.5695    1.0000 </r>
       <r>   -3.4712    1.0000 </r>
       <r>   -3.3942    1.0000 </r>
       <r>   -3.3662    1.0000 </r>
       <r>   -3.2676    1.0000 </r>
       <r>   -3.1262    1.0000 </r>
       <r>   -3.0982    1.0000 </r>
       <r>   -2.9217    1.0000 </r>
       <r>   -2.8279    1.0000 </r>
       <r>   -2.7648    1.0000 </r>
       <r>   -2.6859    1.0000 </r>
       <r>   -2.6540    1.0000 </r>
       <r>   -2.3014    1.0000 </r>
       <r>   -2.2714    1.0000 </r>
       <r>   -2.2109    1.0000 </r>
       <r>   -0.2108    1.0000 </r>
       <r>   -0.1777    1.0000 </r>
       <r>    0.4028    1.0000 </r>
       <r>    0.4431    1.0000 </r>
       <r>    0.5171    1.0000 </r>
       <r>    0.5532    1.0000 </r>
       <r>    0.5697    1.0000 </r>
       <r>    0.6599    1.0000 </r>
       <r>    0.6908    1.0000 </r>
       <r>    0.7614    1.0000 </r>
       <r>    0.7931    1.0000 </r>
       <r>    0.8354    1.0000 </r>
       <r>    0.8737    1.0000 </r>
       <r>    0.9948    1.0000 </r>
       <r>    1.1750    1.0000 </r>
       <r>    1.2056    1.0000 </r>
       <r>    1.2608    1.0000 </r>
       <r>    1.2941    1.0000 </r>
       <r>    1.9400    1.0000 </r>
       <r>    1.9913    1.0000 </r>
       <r>    2.0290    1.0000 </r>
       <r>    2.0729    1.0000 </r>
       <r>    2.1156    1.0000 </r>
       <r>    2.1648    1.0000 </r>
       <r>    2.4050    1.0000 </r>
       <r>    2.5484    1.0000 </r>
       <r>    2.5756    1.0000 </r>
       <r>    2.6746    1.0000 </r>
       <r>    2.7115    1.0000 </r>
       <r>    3.1834    1.0000 </r>
[...]
      </set>
     </set>
    </set>
   </array>
  </eigenvalues>
  <separator name="orbital magnetization" >
   <v name="MAGDIPOLOUT">      0.00000000      0.00000000      0.00000000</v>
  </separator>
  <dos>
   <i name="efermi">      8.17892360 </i>
   <total>
    <array>
     <dimension dim="1">gridpoints</dimension>
     <dimension dim="2">spin</dimension>
     <field>energy</field>
     <field>total</field>
     <field>integrated</field>
     <set>
      <set comment="spin 1">
       <r>    -9.3702     0.0000     0.0000 </r>
       <r>    -9.2809     0.0000     0.0000 </r>
       <r>    -9.1917     0.0000     0.0000 </r>
       <r>    -9.1024     0.0000     0.0000 </r>
       <r>    -9.0132    -0.0000    -0.0000 </r>
       <r>    -8.9240    -0.0000    -0.0000 </r>
       <r>    -8.8347    -0.0000    -0.0000 </r>
       <r>    -8.7455    -0.0000    -0.0000 </r>
       <r>    -8.6562    -0.0000    -0.0000 </r>
       <r>    -8.5670    -0.0000    -0.0000 </r>
       <r>    -8.4778    -0.0000    -0.0000 </r>
       <r>    -8.3885    -0.0000    -0.0000 </r>
       <r>    -8.2993    -0.0000    -0.0000 </r>
       <r>    -8.2100    -0.0000    -0.0000 </r>
       <r>    -8.1208    -0.0000    -0.0000 </r>
       <r>    -8.0315    -0.0000    -0.0000 </r>
       <r>    -7.9423    -0.0002    -0.0000 </r>
       <r>    -7.8531    -0.0013    -0.0001 </r>
       <r>    -7.7638    -0.0069    -0.0008 </r>
       <r>    -7.6746    -0.0228    -0.0028 </r>
       <r>    -7.5853    -0.0434    -0.0067 </r>
       <r>    -7.4961    -0.0260    -0.0090 </r>
       <r>    -7.4069     0.1356     0.0031 </r>
       <r>    -7.3176     0.6236     0.0588 </r>
       <r>    -7.2284     1.5732     0.1992 </r>
       <r>    -7.1391     2.8807     0.4562 </r>
       <r>    -7.0499     4.1383     0.8255 </r>
       <r>    -6.9607     4.6532     1.2408 </r>
       <r>    -6.8714     4.0862     1.6055 </r>
       <r>    -6.7822     3.1040     1.8825 </r>
       <r>    -6.6929     2.9690     2.1474 </r>
       <r>    -6.6037     4.5756     2.5558 </r>
       <r>    -6.5144     7.3994     3.2161 </r>
       <r>    -6.4252     9.4821     4.0623 </r>
       <r>    -6.3360     9.1447     4.8784 </r>
       <r>    -6.2467     6.6872     5.4751 </r>
       <r>    -6.1575     4.0045     5.8325 </r>
       <r>    -6.0682     3.1573     6.1143 </r>
       <r>    -5.9790     4.7918     6.5419 </r>
       <r>    -5.8898     7.4182     7.2039 </r>
       <r>    -5.8005     9.4107     8.0437 </r>
       <r>    -5.7113    10.4810     8.9791 </r>
       <r>    -5.6220    10.9632     9.9574 </r>
       <r>    -5.5328    11.1547    10.9529 </r>
       <r>    -5.4436    10.5436    11.8938 </r>
       <r>    -5.3543     8.6655    12.6671 </r>
       <r>    -5.2651     7.2559    13.3147 </r>
       <r>    -5.1758     8.7368    14.0943 </r>
       <r>    -5.0866    12.3951    15.2005 </r>
       <r>    -4.9973    14.4497    16.4900 </r>
       <r>    -4.9081    12.3933    17.5960 </r>
       <r>    -4.8189     7.8587    18.2973 </r>
       <r>    -4.7296     5.2123    18.7625 </r>
       <r>    -4.6404     7.1153    19.3974 </r>
       <r>    -4.5511    11.7818    20.4489 </r>
       <r>    -4.4619    15.9859    21.8755 </r>
       <r>    -4.3727    17.9275    23.4753 </r>
       <r>    -4.2834    17.0589    24.9977 </r>
       <r>    -4.1942    15.6201    26.3917 </r>
       <r>    -4.1049    17.4137    27.9457 </r>
       <r>    -4.0157    21.1725    29.8351 </r>
       <r>    -3.9265    21.2346    31.7301 </r>
       <r>    -3.8372    16.7783    33.2275 </r>
       <r>    -3.7480    13.1876    34.4043 </r>
       <r>    -3.6587    14.2129    35.6727 </r>
       <r>    -3.5695    17.7786    37.2593 </r>
       <r>    -3.4802    19.7047    39.0178 </r>
       <r>    -3.3910    18.8627    40.7011 </r>
       <r>    -3.3018    17.2253    42.2383 </r>
       <r>    -3.2125    16.9041    43.7468 </r>
       <r>    -3.1233    18.1054    45.3626 </r>
       <r>    -3.0340    19.4470    47.0981 </r>
       <r>    -2.9448    20.6150    48.9378 </r>
       <r>    -2.8556    22.3956    50.9364 </r>
       <r>    -2.7663    24.1520    53.0917 </r>
       <r>    -2.6771    23.7502    55.2112 </r>
       <r>    -2.5878    19.6123    56.9615 </r>
       <r>    -2.4986    13.5361    58.1694 </r>
       <r>    -2.4094    10.4756    59.1043 </r>
       <r>    -2.3201    12.7282    60.2402 </r>
       <r>    -2.2309    15.9949    61.6676 </r>
       <r>    -2.1416    14.5346    62.9646 </r>
       <r>    -2.0524     8.6304    63.7348 </r>
       <r>    -1.9631     3.0617    64.0081 </r>
       <r>    -1.8739     0.4128    64.0449 </r>
       <r>    -1.7847    -0.1996    64.0271 </r>
       <r>    -1.6954    -0.1780    64.0112 </r>
       <r>    -1.6062    -0.0871    64.0034 </r>
       <r>    -1.5169    -0.0301    64.0008 </r>
       <r>    -1.4277    -0.0072    64.0001 </r>
       <r>    -1.3385    -0.0011    64.0000 </r>
       <r>    -1.2492    -0.0001    64.0000 </r>
       <r>    -1.1600    -0.0002    64.0000 </r>
       <r>    -1.0707    -0.0016    63.9998 </r>
       <r>    -0.9815    -0.0091    63.9990 </r>
       <r>    -0.8923    -0.0297    63.9964 </r>
       <r>    -0.8030    -0.0411    63.9927 </r>
       <r>    -0.7138     0.0537    63.9975 </r>
       <r>    -0.6245     0.3187    64.0259 </r>
       <r>    -0.5353     0.5524    64.0752 </r>
       <r>    -0.4460     0.6221    64.1308 </r>
       <r>    -0.3568     1.4474    64.2599 </r>
       <r>    -0.2676     4.4526    64.6573 </r>
       <r>    -0.1783     8.6580    65.4299 </r>
       <r>    -0.0891    10.5526    66.3717 </r>
       <r>     0.0002     8.8998    67.1659 </r>
       <r>     0.0894     6.7790    67.7708 </r>
       <r>     0.1786     7.7152    68.4594 </r>
       <r>     0.2679    12.2266    69.5505 </r>
       <r>     0.3571    18.1773    71.1726 </r>
       <r>     0.4464    22.3220    73.1647 </r>
       <r>     0.5356    22.8913    75.2075 </r>
       <r>     0.6248    22.6513    77.2289 </r>
       <r>     0.7141    25.7139    79.5237 </r>
       <r>     0.8033    30.9069    82.2819 </r>
       <r>     0.8926    33.0215    85.2287 </r>
       <r>     0.9818    30.5450    87.9546 </r>
       <r>     1.0711    28.3490    90.4845 </r>
       <r>     1.1603    30.9118    93.2431 </r>
       <r>     1.2495    34.9224    96.3596 </r>
       <r>     1.3388    33.0227    99.3066 </r>
       <r>     1.4280    23.6515   101.4173 </r>
       <r>     1.5173    11.9792   102.4863 </r>
       <r>     1.6065     3.3450   102.7849 </r>
       <r>     1.6957    -0.0869   102.7771 </r>
       <r>     1.7850     1.4875   102.9099 </r>
       <r>     1.8742     6.7551   103.5127 </r>
       <r>     1.9635    13.8825   104.7516 </r>
       <r>     2.0527    20.2733   106.5608 </r>
       <r>     2.1419    22.3419   108.5546 </r>
       <r>     2.2312    18.2542   110.1836 </r>
       <r>     2.3204    11.2550   111.1880 </r>
       <r>     2.4097     7.0629   111.8183 </r>
       <r>     2.4989     8.5863   112.5846 </r>
       <r>     2.5882    14.0102   113.8349 </r>
       <r>     2.6774    17.7518   115.4191 </r>
       <r>     2.7666    16.1668   116.8618 </r>
       <r>     2.8559    12.9289   118.0156 </r>
       <r>     2.9451    13.7305   119.2409 </r>
       <r>     3.0344    18.6835   120.9083 </r>
       <r>     3.1236    24.5708   123.1010 </r>
       <r>     3.2128    29.6697   125.7488 </r>
       <r>     3.3021    32.1334   128.6164 </r>
       <r>     3.3913    30.1640   131.3083 </r>
       <r>     3.4806    26.7028   133.6913 </r>
       <r>     3.5698    24.8724   135.9109 </r>
       <r>     3.6590    22.1120   137.8842 </r>
       <r>     3.7483    17.1389   139.4137 </r>
       <r>     3.8375    14.6425   140.7204 </r>
       <r>     3.9268    17.8238   142.3110 </r>
       <r>     4.0160    22.3500   144.3056 </r>
       <r>     4.1053    22.4003   146.3046 </r>
       <r>     4.1945    20.0125   148.0905 </r>
       <r>     4.2837    21.9645   150.0507 </r>
       <r>     4.3730    28.2232   152.5694 </r>
       <r>     4.4622    33.0230   155.5164 </r>
       <r>     4.5515    34.3846   158.5849 </r>
       <r>     4.6407    34.0310   161.6219 </r>
       <r>     4.7299    33.9053   164.6476 </r>
       <r>     4.8192    35.2391   167.7924 </r>
       <r>     4.9084    36.4788   171.0478 </r>
       <r>     4.9977    34.8033   174.1537 </r>
       <r>     5.0869    30.7213   176.8953 </r>
       <r>     5.1761    28.1459   179.4070 </r>
       <r>     5.2654    29.3754   182.0285 </r>
       <r>     5.3546    31.7509   184.8620 </r>
       <r>     5.4439    33.2985   187.8336 </r>
       <r>     5.5331    36.4224   191.0840 </r>
       <r>     5.6224    40.2602   194.6769 </r>
       <r>     5.7116    39.5607   198.2073 </r>
       <r>     5.8008    35.0194   201.3325 </r>
       <r>     5.8901    32.5776   204.2398 </r>
       <r>     5.9793    32.7018   207.1581 </r>
       <r>     6.0686    31.6559   209.9831 </r>
       <r>     6.1578    30.2069   212.6788 </r>
       <r>     6.2470    31.1401   215.4578 </r>
       <r>     6.3363    32.7926   218.3843 </r>
       <r>     6.4255    32.8474   221.3156 </r>
       <r>     6.5148    31.4893   224.1257 </r>
       <r>     6.6040    29.1018   226.7228 </r>
       <r>     6.6933    27.7419   229.1985 </r>
       <r>     6.7825    30.3224   231.9046 </r>
       <r>     6.8717    35.7204   235.0923 </r>
       <r>     6.9610    38.6197   238.5387 </r>
       <r>     7.0502    34.2959   241.5994 </r>
       <r>     7.1395    24.3195   243.7697 </r>
       <r>     7.2287    15.6468   245.1660 </r>
       <r>     7.3179    12.8915   246.3165 </r>
       <r>     7.4072    15.1943   247.6724 </r>
       <r>     7.4964    18.9576   249.3642 </r>
       <r>     7.5857    20.6289   251.2052 </r>
       <r>     7.6749    18.6982   252.8738 </r>
       <r>     7.7641    13.8198   254.1071 </r>
       <r>     7.8534     8.2573   254.8440 </r>
       <r>     7.9426     4.9263   255.2836 </r>
       <r>     8.0319     3.9939   255.6401 </r>
       <r>     8.1211     3.0108   255.9087 </r>
       <r>     8.2104     1.2858   256.0235 </r>
       <r>     8.2996     0.0775   256.0304 </r>
       <r>     8.3888    -0.2002   256.0125 </r>
       <r>     8.4781    -0.1074   256.0030 </r>
       <r>     8.5673    -0.0283   256.0004 </r>
       <r>     8.6566    -0.0046   256.0000 </r>
       <r>     8.7458    -0.0014   255.9999 </r>
       <r>     8.8350    -0.0054   255.9994 </r>
       <r>     8.9243    -0.0178   255.9978 </r>
       <r>     9.0135    -0.0254   255.9956 </r>
       <r>     9.1028     0.0340   255.9986 </r>
       <r>     9.1920     0.2255   256.0187 </r>
       <r>     9.2812     0.4735   256.0610 </r>
       <r>     9.3705     0.6017   256.1147 </r>
       <r>     9.4597     0.6779   256.1752 </r>
       <r>     9.5490     1.0693   256.2706 </r>
       <r>     9.6382     1.6903   256.4214 </r>
       <r>     9.7275     1.7129   256.5743 </r>
       <r>     9.8167     0.8684   256.6518 </r>
       <r>     9.9059     0.0289   256.6544 </r>
       <r>     9.9952     0.0600   256.6597 </r>
       <r>    10.0844     1.1605   256.7633 </r>
       <r>    10.1737     2.9366   257.0254 </r>
       <r>    10.2629     4.8762   257.4605 </r>
       <r>    10.3521     6.9529   258.0810 </r>
       <r>    10.4414     9.1489   258.8975 </r>
       <r>    10.5306    10.9087   259.8710 </r>
       <r>    10.6199    11.3167   260.8809 </r>
       <r>    10.7091     9.5625   261.7343 </r>
       <r>    10.7983     5.9690   262.2669 </r>
       <r>    10.8876     2.2270   262.4657 </r>
       <r>    10.9768    -0.0984   262.4569 </r>
       <r>    11.0661    -0.6058   262.4028 </r>
       <r>    11.1553     0.8490   262.4786 </r>
       <r>    11.2446     4.1698   262.8507 </r>
       <r>    11.3338     7.6288   263.5315 </r>
       <r>    11.4230     9.5956   264.3879 </r>
       <r>    11.5123    10.6796   265.3409 </r>
       <r>    11.6015    11.7792   266.3921 </r>
       <r>    11.6908    13.4349   267.5910 </r>
       <r>    11.7800    16.1078   269.0285 </r>
       <r>    11.8692    18.4819   270.6779 </r>
       <r>    11.9585    19.0480   272.3777 </r>
       <r>    12.0477    18.3509   274.0154 </r>
       <r>    12.1370    16.5712   275.4942 </r>
       <r>    12.2262    12.3700   276.5981 </r>
       <r>    12.3154     6.9321   277.2168 </r>
       <r>    12.4047     4.8844   277.6527 </r>
       <r>    12.4939     8.4683   278.4084 </r>
       <r>    12.5832    14.9709   279.7444 </r>
       <r>    12.6724    21.1903   281.6355 </r>
       <r>    12.7617    26.4625   283.9970 </r>
       <r>    12.8509    30.4150   286.7113 </r>
       <r>    12.9401    32.2051   289.5853 </r>
       <r>    13.0294    32.5694   292.4918 </r>
       <r>    13.1186    32.0223   295.3495 </r>
       <r>    13.2079    28.7435   297.9146 </r>
       <r>    13.2971    21.8323   299.8630 </r>
       <r>    13.3863    15.9051   301.2824 </r>
       <r>    13.4756    18.1032   302.8979 </r>
       <r>    13.5648    27.2770   305.3322 </r>
       <r>    13.6541    33.6822   308.3380 </r>
       <r>    13.7433    32.3976   311.2292 </r>
       <r>    13.8325    28.2726   313.7523 </r>
       <r>    13.9218    27.4587   316.2027 </r>
       <r>    14.0110    30.0164   318.8814 </r>
       <r>    14.1003    31.0219   321.6499 </r>
       <r>    14.1895    26.5764   324.0216 </r>
       <r>    14.2788    17.5324   325.5862 </r>
       <r>    14.3680     8.3893   326.3348 </r>
       <r>    14.4572     4.1070   326.7014 </r>
       <r>    14.5465     7.1519   327.3396 </r>
       <r>    14.6357    15.0659   328.6841 </r>
       <r>    14.7250    21.0666   330.5641 </r>
       <r>    14.8142    20.4465   332.3888 </r>
       <r>    14.9034    14.9624   333.7240 </r>
       <r>    14.9927     8.5657   334.4885 </r>
       <r>    15.0819     3.4890   334.7998 </r>
       <r>    15.1712     1.2398   334.9105 </r>
       <r>    15.2604     2.1824   335.1052 </r>
       <r>    15.3496     4.0288   335.4647 </r>
       <r>    15.4389     3.9643   335.8185 </r>
       <r>    15.5281     2.0527   336.0017 </r>
       <r>    15.6174     0.3622   336.0340 </r>
       <r>    15.7066    -0.1889   336.0172 </r>
       <r>    15.7959    -0.1412   336.0046 </r>
       <r>    15.8851    -0.0428   336.0007 </r>
       <r>    15.9743    -0.0075   336.0001 </r>
       <r>    16.0636    -0.0008   336.0000 </r>
       <r>    16.1528    -0.0001   336.0000 </r>
       <r>    16.2421    -0.0000   336.0000 </r>
       <r>    16.3313    -0.0000   336.0000 </r>
       <r>    16.4205    -0.0000   336.0000 </r>
       <r>    16.5098    -0.0000   336.0000 </r>
       <r>    16.5990    -0.0000   336.0000 </r>
       <r>    16.6883    -0.0000   336.0000 </r>
       <r>    16.7775     0.0000   336.0000 </r>
       <r>    16.8667     0.0000   336.0000 </r>
       <r>    16.9560     0.0000   336.0000 </r>
       <r>    17.0452     0.0000   336.0000 </r>
       <r>    17.1345     0.0000   336.0000 </r>
       <r>    17.2237     0.0000   336.0000 </r>
       <r>    17.3130     0.0000   336.0000 </r>
       <r>    17.4022     0.0000   336.0000 </r>
      </set>
     </set>
    </array>
   </total>
  </dos>
 </calculation>
 <structure name="finalpos" >
  <crystal>
   <varray name="basis" >
    <v>       8.74331558       0.00000000       0.00000000 </v>
    <v>       0.00000000       8.74331558       0.00000000 </v>
    <v>       0.00000000       0.00000000       8.74331558 </v>
   </varray>
   <i name="volume">    668.38771987 </i>
   <varray name="rec_basis" >
    <v>       0.11437309       0.00000000       0.00000000 </v>
    <v>       0.00000000       0.11437309       0.00000000 </v>
    <v>       0.00000000       0.00000000       0.11437309 </v>
   </varray>
  </crystal>
  <varray name="positions" >
   <v>       0.11669620       0.12398768       0.11911460 </v>
   <v>       0.13033828       0.37596709       0.37448619 </v>
   <v>       0.37780900       0.12308139       0.38050263 </v>
   <v>       0.37108123       0.37203806       0.12871189 </v>
   <v>       0.12589320       0.13112658       0.62830060 </v>
   <v>       0.12400609       0.37765566       0.87946208 </v>
   <v>       0.37644556       0.12714845       0.87375242 </v>
   <v>       0.36825823       0.37523418       0.62628327 </v>
   <v>       0.12677529       0.62253910       0.12617922 </v>
   <v>       0.11919629       0.87624129       0.38020584 </v>
   <v>       0.36865816       0.62387176       0.37873841 </v>
   <v>       0.37454489       0.87522546       0.12565241 </v>
   <v>       0.12162687       0.63149115       0.62194096 </v>
   <v>       0.12303698       0.86865011       0.87350395 </v>
   <v>       0.38316104       0.62665585       0.87407298 </v>
   <v>       0.37299096       0.87194057       0.63304590 </v>
   <v>       0.62870655       0.12010000       0.12335532 </v>
   <v>       0.61930164       0.37293532       0.37112059 </v>
   <v>       0.87638327       0.12005566       0.37305391 </v>
   <v>       0.88130806       0.37403925       0.12892384 </v>
   <v>       0.62341258       0.12918732       0.62778200 </v>
   <v>       0.62667692       0.37833645       0.87362280 </v>
   <v>       0.87604657       0.12143691       0.87591840 </v>
   <v>       0.87575041       0.37408939       0.62588136 </v>
   <v>       0.63074581       0.62695978       0.12596617 </v>
   <v>       0.62628781       0.87800312       0.37391503 </v>
   <v>       0.87382087       0.62392026       0.37667492 </v>
   <v>       0.87293279       0.87711678       0.12391305 </v>
   <v>       0.62270600       0.62472770       0.62423564 </v>
   <v>       0.61716044       0.87620107       0.87468481 </v>
   <v>       0.87362009       0.62517900       0.87588546 </v>
   <v>       0.87730414       0.87421958       0.62427252 </v>
   <v>       0.00274981       0.99009525       0.99865430 </v>
   <v>       0.00101077       0.24561648       0.24975446 </v>
   <v>       0.25492083       0.99701717       0.24631563 </v>
   <v>       0.24851483       0.24945287       0.00170851 </v>
   <v>       0.99856180       0.99745152       0.50492225 </v>
   <v>       0.00092769       0.25067977       0.75137305 </v>
   <v>       0.24629237       0.99527885       0.75025536 </v>
   <v>       0.24447538       0.24734896       0.51091376 </v>
   <v>       0.99974358       0.49637833       0.00587500 </v>
   <v>       0.99270966       0.74478616       0.24630060 </v>
   <v>       0.24482497       0.50274517       0.24510318 </v>
   <v>       0.25058869       0.74536254       0.00560582 </v>
   <v>       0.00056771       0.49636232       0.50415064 </v>
   <v>       0.99976462       0.75473331       0.74762719 </v>
   <v>       0.25390569       0.50024636       0.75102774 </v>
   <v>       0.25132524       0.74457168       0.49514640 </v>
   <v>       0.49838444       0.99820598       0.00128607 </v>
   <v>       0.50175617       0.25065766       0.25143005 </v>
   <v>       0.74201197       0.99899276       0.24974906 </v>
   <v>       0.75254797       0.25016654       0.00096898 </v>
   <v>       0.49855184       0.00155031       0.50337872 </v>
   <v>       0.49718758       0.24671026       0.74818992 </v>
   <v>       0.75495457       0.00203331       0.75638747 </v>
   <v>       0.75087636       0.25307904       0.50413367 </v>
   <v>       0.50082497       0.50443746       0.00241161 </v>
   <v>       0.50870062       0.74898334       0.24870119 </v>
   <v>       0.74348236       0.50304390       0.25103602 </v>
   <v>       0.75301214       0.75345385       0.00134194 </v>
   <v>       0.49213432       0.50381693       0.49979740 </v>
   <v>       0.50092408       0.75204323       0.74891477 </v>
   <v>       0.75032389       0.49507668       0.74814429 </v>
   <v>       0.75163534       0.75150322       0.48551960 </v>
  </varray>
 </structure>
</modeling>
