unknown system                          
           1
     8.743316    0.000000    0.000000
     0.000000    8.743316    0.000000
     0.000000    0.000000    8.743316
   C    Si
    32    32
Direct configuration=     1
   0.11669620  0.12398768  0.11911460
   0.13033828  0.37596709  0.37448619
   0.37780900  0.12308139  0.38050263
   0.37108123  0.37203806  0.12871189
   0.12589320  0.13112658  0.62830060
   0.12400609  0.37765566  0.87946208
   0.37644556  0.12714845  0.87375242
   0.36825823  0.37523418  0.62628327
   0.12677529  0.62253910  0.12617922
   0.11919629  0.87624129  0.38020584
   0.36865816  0.62387176  0.37873841
   0.37454489  0.87522546  0.12565241
   0.12162687  0.63149115  0.62194096
   0.12303698  0.86865011  0.87350395
   0.38316104  0.62665585  0.87407298
   0.37299096  0.87194057  0.63304590
   0.62870655  0.12010000  0.12335532
   0.61930164  0.37293532  0.37112059
   0.87638327  0.12005566  0.37305391
   0.88130806  0.37403925  0.12892384
   0.62341258  0.12918732  0.62778200
   0.62667692  0.37833645  0.87362280
   0.87604657  0.12143691  0.87591840
   0.87575041  0.37408939  0.62588136
   0.63074581  0.62695978  0.12596617
   0.62628781  0.87800312  0.37391503
   0.87382087  0.62392026  0.37667492
   0.87293279  0.87711678  0.12391305
   0.62270600  0.62472770  0.62423564
   0.61716044  0.87620107  0.87468481
   0.87362009  0.62517900  0.87588546
   0.87730414  0.87421958  0.62427252
   0.00274981  0.99009525  0.99865430
   0.00101077  0.24561648  0.24975446
   0.25492083  0.99701717  0.24631563
   0.24851483  0.24945287  0.00170851
   0.99856180  0.99745152  0.50492225
   0.00092769  0.25067977  0.75137305
   0.24629237  0.99527885  0.75025536
   0.24447538  0.24734896  0.51091376
   0.99974358  0.49637833  0.00587500
   0.99270966  0.74478616  0.24630060
   0.24482497  0.50274517  0.24510318
   0.25058869  0.74536254  0.00560582
   0.00056771  0.49636232  0.50415064
   0.99976462  0.75473331  0.74762719
   0.25390569  0.50024636  0.75102774
   0.25132524  0.74457168  0.49514640
   0.49838444  0.99820598  0.00128607
   0.50175617  0.25065766  0.25143005
   0.74201197  0.99899276  0.24974906
   0.75254797  0.25016654  0.00096898
   0.49855184  0.00155031  0.50337872
   0.49718758  0.24671026  0.74818992
   0.75495457  0.00203331  0.75638747
   0.75087636  0.25307904  0.50413367
   0.50082497  0.50443746  0.00241161
   0.50870062  0.74898334  0.24870119
   0.74348236  0.50304390  0.25103602
   0.75301214  0.75345385  0.00134194
   0.49213432  0.50381693  0.49979740
   0.50092408  0.75204323  0.74891477
   0.75032389  0.49507668  0.74814429
   0.75163534  0.75150322  0.48551960
