       N       E                     dE             d eps       ncg     rms          rms(c)
DAV:   1     0.668956339150E+03    0.66896E+03   -0.99558E+04  4704   0.111E+03
DAV:   2    -0.462368277136E+03   -0.11313E+04   -0.10712E+04  5824   0.221E+02
DAV:   3    -0.537640265531E+03   -0.75272E+02   -0.74579E+02  5680   0.562E+01
DAV:   4    -0.539302426222E+03   -0.16622E+01   -0.16547E+01  5664   0.905E+00
DAV:   5    -0.539351439004E+03   -0.49013E-01   -0.48933E-01  5512   0.146E+00    0.492E+01
DAV:   6    -0.482657417604E+03    0.56694E+02   -0.19031E+02  5352   0.234E+01    0.218E+01
DAV:   7    -0.481302707646E+03    0.13547E+01   -0.15693E+01  5864   0.703E+00    0.974E+00
DAV:   8    -0.481074198544E+03    0.22851E+00   -0.10160E+00  5416   0.197E+00    0.263E+00
DAV:   9    -0.481057799807E+03    0.16399E-01   -0.14248E-01  5464   0.818E-01    0.437E-01
DAV:  10    -0.481060814170E+03   -0.30144E-02   -0.13717E-02  5776   0.259E-01    0.242E-01
DAV:  11    -0.481061824365E+03   -0.10102E-02   -0.19582E-03  5200   0.112E-01    0.880E-02
DAV:  12    -0.481061874510E+03   -0.50145E-04   -0.34113E-04  6304   0.450E-02    0.407E-02
DAV:  13    -0.481061886501E+03   -0.11991E-04   -0.87734E-05  5144   0.220E-02    0.104E-02
DAV:  14    -0.481061892841E+03   -0.63392E-05   -0.63676E-06  5440   0.577E-03    0.524E-03
DAV:  15    -0.481061894639E+03   -0.17987E-05   -0.20900E-06  5768   0.319E-03    0.404E-03
DAV:  16    -0.481061894342E+03    0.29730E-06   -0.26783E-07  5872   0.135E-03    0.136E-03
DAV:  17    -0.481061894653E+03   -0.31121E-06   -0.10435E-07  5248   0.698E-04    0.713E-04
DAV:  18    -0.481061894667E+03   -0.13857E-07   -0.56760E-09  2800   0.202E-04    0.292E-04
DAV:  19    -0.481061894640E+03    0.26779E-07   -0.39576E-09  2712   0.141E-04    0.856E-05
DAV:  20    -0.481061894645E+03   -0.51368E-08   -0.56256E-10  2688   0.699E-05
   1 F= -.48106189E+03 E0= -.48106517E+03  d E =0.982171E-02
