<?xml version="1.0" encoding="ISO-8859-1"?>
<modeling>
 <generator>
  <i name="program" type="string">vasp </i>
  <i name="version" type="string">6.2.1  </i>
  <i name="subversion" type="string">16May21 (build Jun 06 2020 10:27:25) complex                          parallel </i>
  <i name="platform" type="string">LinuxIFC </i>
  <i name="date" type="string">2024 01 25 </i>
  <i name="time" type="string">16:49:59 </i>
 </generator>
 <incar>
  <i type="int" name="NELM">    60</i>
  <i type="int" name="IBRION">     1</i>
  <i name="EDIFF">      0.00000001</i>
  <i type="int" name="NSW">     0</i>
  <i type="int" name="ISIF">     3</i>
  <i type="int" name="ISYM">     0</i>
  <i type="logical" name="LWAVE"> F  </i>
  <i type="logical" name="LCHARG"> F  </i>
  <i type="string" name="GGA">PE</i>
 </incar>
 <primitive_cell>
  <structure name="primitive_cell" >
   <crystal>
    <varray name="basis" >
     <v>       8.74331558       0.00000000       0.00000000 </v>
     <v>       0.00000000       8.74331558       0.00000000 </v>
     <v>       0.00000000       0.00000000       8.74331558 </v>
    </varray>
    <i name="volume">    668.38771987 </i>
    <varray name="rec_basis" >
     <v>       0.11437309       0.00000000       0.00000000 </v>
     <v>       0.00000000       0.11437309       0.00000000 </v>
     <v>       0.00000000       0.00000000       0.11437309 </v>
    </varray>
   </crystal>
   <varray name="positions" >
    <v>       0.12121308       0.12192677       0.12574099 </v>
    <v>       0.12544393       0.37286935       0.37707922 </v>
    <v>       0.37366544       0.12412948       0.37220360 </v>
    <v>       0.36756805       0.37834815       0.12741159 </v>
    <v>       0.12780685       0.12360985       0.62736397 </v>
    <v>       0.12430222       0.37354459       0.87883421 </v>
    <v>       0.37435396       0.12542208       0.87341383 </v>
    <v>       0.37140203       0.37314559       0.62541123 </v>
    <v>       0.12656123       0.62375760       0.12182809 </v>
    <v>       0.12727489       0.87373764       0.37387792 </v>
    <v>       0.37806244       0.62278387       0.37682605 </v>
    <v>       0.37658338       0.87723655       0.12625234 </v>
    <v>       0.12421622       0.62477643       0.62435611 </v>
    <v>       0.12927603       0.87570606       0.88036005 </v>
    <v>       0.37463189       0.62813741       0.87351102 </v>
    <v>       0.37714720       0.87518749       0.62694942 </v>
    <v>       0.62513753       0.12545567       0.12719012 </v>
    <v>       0.62293713       0.37262828       0.37362842 </v>
    <v>       0.87452150       0.12301263       0.37699584 </v>
    <v>       0.87885320       0.37766900       0.12704913 </v>
    <v>       0.62449638       0.12573284       0.62547559 </v>
    <v>       0.62235871       0.37962508       0.86990457 </v>
    <v>       0.87789379       0.12734796       0.87841670 </v>
    <v>       0.87411737       0.37299628       0.62223896 </v>
    <v>       0.62590707       0.62698599       0.12302700 </v>
    <v>       0.62562675       0.87254728       0.37686311 </v>
    <v>       0.86986246       0.62518836       0.37585007 </v>
    <v>       0.87526340       0.87799904       0.12298678 </v>
    <v>       0.62305526       0.62604211       0.62473078 </v>
    <v>       0.62496330       0.87413822       0.87502498 </v>
    <v>       0.87737693       0.62265102       0.87520588 </v>
    <v>       0.87160460       0.87775764       0.62561518 </v>
    <v>       0.00101722       0.00065764       0.99570169 </v>
    <v>       0.00512707       0.24920419       0.24778898 </v>
    <v>       0.25174958       0.00259701       0.24865843 </v>
    <v>       0.24878616       0.24658389       0.99984193 </v>
    <v>       0.99917934       0.00196248       0.49835287 </v>
    <v>       0.00201047       0.25212113       0.74856599 </v>
    <v>       0.25019132       0.00300307       0.75182953 </v>
    <v>       0.24849968       0.24867126       0.50329283 </v>
    <v>       0.99883190       0.49904481       0.00171684 </v>
    <v>       0.00133350       0.74645532       0.24663563 </v>
    <v>       0.25513357       0.49929368       0.24783791 </v>
    <v>       0.24955438       0.74515134       0.00584857 </v>
    <v>       0.99977246       0.50042560       0.50158829 </v>
    <v>       0.99917396       0.74960529       0.74991496 </v>
    <v>       0.24664400       0.50057532       0.74991003 </v>
    <v>       0.24771257       0.74947822       0.49792678 </v>
    <v>       0.49823164       0.99839591       0.00151538 </v>
    <v>       0.50188072       0.25042172       0.25004415 </v>
    <v>       0.75318094       0.99754324       0.25115418 </v>
    <v>       0.75416411       0.24940440       0.99603015 </v>
    <v>       0.49991014       0.00013745       0.50089555 </v>
    <v>       0.50026424       0.25152712       0.75195218 </v>
    <v>       0.75450299       0.00225982       0.75418234 </v>
    <v>       0.75146967       0.25425754       0.49999698 </v>
    <v>       0.50110245       0.49880988       0.00311989 </v>
    <v>       0.49813103       0.75186648       0.24889934 </v>
    <v>       0.75285985       0.49744442       0.25002350 </v>
    <v>       0.74808699       0.74486950       0.99562679 </v>
    <v>       0.49812661       0.49779659       0.50276430 </v>
    <v>       0.49929829       0.74686795       0.75191133 </v>
    <v>       0.75195864       0.50285433       0.75053824 </v>
    <v>       0.75146605       0.75089777       0.50160295 </v>
   </varray>
  </structure>
  <varray name="primitive_index" >
   <v type="int" >        1 </v>
   <v type="int" >        2 </v>
   <v type="int" >        3 </v>
   <v type="int" >        4 </v>
   <v type="int" >        5 </v>
   <v type="int" >        6 </v>
   <v type="int" >        7 </v>
   <v type="int" >        8 </v>
   <v type="int" >        9 </v>
   <v type="int" >       10 </v>
   <v type="int" >       11 </v>
   <v type="int" >       12 </v>
   <v type="int" >       13 </v>
   <v type="int" >       14 </v>
   <v type="int" >       15 </v>
   <v type="int" >       16 </v>
   <v type="int" >       17 </v>
   <v type="int" >       18 </v>
   <v type="int" >       19 </v>
   <v type="int" >       20 </v>
   <v type="int" >       21 </v>
   <v type="int" >       22 </v>
   <v type="int" >       23 </v>
   <v type="int" >       24 </v>
   <v type="int" >       25 </v>
   <v type="int" >       26 </v>
   <v type="int" >       27 </v>
   <v type="int" >       28 </v>
   <v type="int" >       29 </v>
   <v type="int" >       30 </v>
   <v type="int" >       31 </v>
   <v type="int" >       32 </v>
   <v type="int" >       33 </v>
   <v type="int" >       34 </v>
   <v type="int" >       35 </v>
   <v type="int" >       36 </v>
   <v type="int" >       37 </v>
   <v type="int" >       38 </v>
   <v type="int" >       39 </v>
   <v type="int" >       40 </v>
   <v type="int" >       41 </v>
   <v type="int" >       42 </v>
   <v type="int" >       43 </v>
   <v type="int" >       44 </v>
   <v type="int" >       45 </v>
   <v type="int" >       46 </v>
   <v type="int" >       47 </v>
   <v type="int" >       48 </v>
   <v type="int" >       49 </v>
   <v type="int" >       50 </v>
   <v type="int" >       51 </v>
   <v type="int" >       52 </v>
   <v type="int" >       53 </v>
   <v type="int" >       54 </v>
   <v type="int" >       55 </v>
   <v type="int" >       56 </v>
   <v type="int" >       57 </v>
   <v type="int" >       58 </v>
   <v type="int" >       59 </v>
   <v type="int" >       60 </v>
   <v type="int" >       61 </v>
   <v type="int" >       62 </v>
   <v type="int" >       63 </v>
   <v type="int" >       64 </v>
  </varray>
 </primitive_cell>
 <kpoints>
  <generation param="Monkhorst-Pack">
   <v type="int" name="divisions">       3        3        3 </v>
   <v name="usershift">      0.00000000       0.00000000       0.00000000 </v>
   <v name="genvec1">      0.33333333       0.00000000       0.00000000 </v>
   <v name="genvec2">      0.00000000       0.33333333       0.00000000 </v>
   <v name="genvec3">      0.00000000       0.00000000       0.33333333 </v>
   <v name="shift">      0.00000000       0.00000000       0.00000000 </v>
  </generation>
  <varray name="kpointlist" >
   <v>       0.00000000       0.00000000       0.00000000 </v>
   <v>       0.33333333       0.00000000       0.00000000 </v>
   <v>       0.00000000       0.33333333       0.00000000 </v>
   <v>       0.00000000       0.00000000       0.33333333 </v>
   <v>       0.33333333       0.33333333       0.00000000 </v>
   <v>       0.00000000       0.33333333       0.33333333 </v>
   <v>       0.33333333       0.00000000       0.33333333 </v>
   <v>      -0.33333333       0.33333333       0.00000000 </v>
   <v>      -0.33333333       0.00000000       0.33333333 </v>
   <v>       0.00000000      -0.33333333       0.33333333 </v>
   <v>       0.33333333       0.33333333       0.33333333 </v>
   <v>      -0.33333333       0.33333333       0.33333333 </v>
   <v>      -0.33333333      -0.33333333       0.33333333 </v>
   <v>       0.33333333      -0.33333333       0.33333333 </v>
  </varray>
  <varray name="weights" >
   <v>       0.03703704 </v>
   <v>       0.07407407 </v>
   <v>       0.07407407 </v>
   <v>       0.07407407 </v>
   <v>       0.07407407 </v>
   <v>       0.07407407 </v>
   <v>       0.07407407 </v>
   <v>       0.07407407 </v>
   <v>       0.07407407 </v>
   <v>       0.07407407 </v>
   <v>       0.07407407 </v>
   <v>       0.07407407 </v>
   <v>       0.07407407 </v>
   <v>       0.07407407 </v>
  </varray>
 </kpoints>
 <parameters>
  <separator name="general" >
   <i type="string" name="SYSTEM">unknown system</i>
   <i type="logical" name="LCOMPAT"> F  </i>
  </separator>
  <separator name="electronic" >
   <i type="string" name="PREC">normal</i>
   <i name="ENMAX">    400.00000000</i>
   <i name="ENAUG">    644.87300000</i>
   <i name="EDIFF">      0.00000001</i>
   <i type="int" name="IALGO">    38</i>
   <i type="int" name="IWAVPR">    10</i>
   <i type="int" name="NBANDS">   168</i>
   <i type="int" name="NBANDSLOW">    -1</i>
   <i type="int" name="NBANDSHIGH">    -1</i>
   <i name="NELECT">    256.00000000</i>
   <i type="int" name="TURBO">     0</i>
   <i type="int" name="IRESTART">     0</i>
   <i type="int" name="NREBOOT">     0</i>
   <i type="int" name="NMIN">     0</i>
   <i name="EREF">      0.00000000</i>
   <separator name="electronic smearing" >
    <i type="int" name="ISMEAR">     1</i>
    <i name="SIGMA">      0.20000000</i>
    <i name="KSPACING">      0.50000000</i>
    <i type="logical" name="KGAMMA"> T  </i>
    <i type="logical" name="KBLOWUP"> T  </i>
   </separator>
   <separator name="electronic projectors" >
    <i type="logical" name="LREAL"> F  </i>
    <v name="ROPT">      0.00000000      0.00000000</v>
    <i type="int" name="LMAXPAW">  -100</i>
    <i type="int" name="LMAXMIX">     2</i>
    <i type="logical" name="NLSPLINE"> F  </i>
   </separator>
   <separator name="electronic startup" >
    <i type="int" name="ISTART">     0</i>
    <i type="int" name="ICHARG">     2</i>
    <i type="int" name="INIWAV">     1</i>
   </separator>
   <separator name="electronic spin" >
    <i type="int" name="ISPIN">     1</i>
    <i type="logical" name="LNONCOLLINEAR"> F  </i>
    <v name="MAGMOM">      1.00000000      1.00000000      1.00000000      1.00000000      1.00000000      1.00000000      1.00000000      1.00000000      1.00000000      1.00000000      1.00000000      1.00000000      1.00000000      1.00000000      1.00000000      1.00000000      1.00000000      1.00000000      1.00000000      1.00000000
      1.00000000      1.00000000      1.00000000      1.00000000      1.00000000      1.00000000      1.00000000      1.00000000      1.00000000      1.00000000      1.00000000      1.00000000      1.00000000      1.00000000      1.00000000      1.00000000      1.00000000      1.00000000      1.00000000      1.00000000
      1.00000000      1.00000000      1.00000000      1.00000000      1.00000000      1.00000000      1.00000000      1.00000000      1.00000000      1.00000000      1.00000000      1.00000000      1.00000000      1.00000000      1.00000000      1.00000000      1.00000000      1.00000000      1.00000000      1.00000000
      1.00000000      1.00000000      1.00000000      1.00000000</v>
    <i name="NUPDOWN">     -1.00000000</i>
    <i type="logical" name="LSORBIT"> F  </i>
    <v name="SAXIS">      0.00000000      0.00000000      1.00000000</v>
    <i type="logical" name="LSPIRAL"> F  </i>
    <v name="QSPIRAL">      0.00000000      0.00000000      0.00000000</v>
    <i type="logical" name="LZEROZ"> F  </i>
   </separator>
   <separator name="electronic exchange-correlation" >
    <i type="logical" name="LASPH"> F  </i>
    <i type="logical" name="LMETAGGA"> F  </i>
   </separator>
   <separator name="electronic convergence" >
    <i type="int" name="NELM">    60</i>
    <i type="int" name="NELMDL">    -5</i>
    <i type="int" name="NELMIN">     2</i>
    <i name="ENINI">    400.00000000</i>
    <separator name="electronic convergence detail" >
     <i type="logical" name="LDIAG"> T  </i>
     <i type="logical" name="LSUBROT"> F  </i>
     <i name="WEIMIN">      0.00000000</i>
     <i name="EBREAK">      0.00000000</i>
     <i name="DEPER">      0.30000000</i>
     <i type="int" name="NRMM">     4</i>
     <i name="TIME">      0.40000000</i>
    </separator>
   </separator>
   <separator name="electronic mixer" >
    <i name="AMIX">      0.40000000</i>
    <i name="BMIX">      1.00000000</i>
    <i name="AMIN">      0.10000000</i>
    <i name="AMIX_MAG">      1.60000000</i>
    <i name="BMIX_MAG">      1.00000000</i>
    <separator name="electronic mixer details" >
     <i type="int" name="IMIX">     4</i>
     <i type="logical" name="MIXFIRST"> F  </i>
     <i type="int" name="MAXMIX">   -45</i>
     <i name="WC">    100.00000000</i>
     <i type="int" name="INIMIX">     1</i>
     <i type="int" name="MIXPRE">     1</i>
     <i type="int" name="MREMOVE">     5</i>
    </separator>
   </separator>
   <separator name="electronic dipolcorrection" >
    <i type="logical" name="LDIPOL"> F  </i>
    <i type="logical" name="LMONO"> F  </i>
    <i type="int" name="IDIPOL">     0</i>
    <i name="EPSILON">      1.00000000</i>
    <v name="DIPOL">   -100.00000000   -100.00000000   -100.00000000</v>
    <i name="EFIELD">      0.00000000</i>
   </separator>
  </separator>
  <separator name="grids" >
   <i type="int" name="NGX">    48</i>
   <i type="int" name="NGY">    48</i>
   <i type="int" name="NGZ">    48</i>
   <i type="int" name="NGXF">    96</i>
   <i type="int" name="NGYF">    96</i>
   <i type="int" name="NGZF">    96</i>
   <i type="logical" name="ADDGRID"> F  </i>
  </separator>
  <separator name="ionic" >
   <i type="int" name="NSW">     0</i>
   <i type="int" name="IBRION">    -1</i>
   <i type="int" name="MDALGO">     0</i>
   <i type="int" name="ISIF">     3</i>
   <i name="PSTRESS">      0.00000000</i>
   <i name="EDIFFG">      0.00000010</i>
   <i type="int" name="NFREE">     0</i>
   <i name="POTIM">      0.50000000</i>
   <i name="SMASS">     -3.00000000</i>
   <i name="SCALEE">      1.00000000</i>
  </separator>
  <separator name="ionic md" >
   <i name="TEBEG">      0.00010000</i>
   <i name="TEEND">      0.00010000</i>
   <i type="int" name="NBLOCK">     1</i>
   <i type="int" name="KBLOCK">     1</i>
   <i type="int" name="NPACO">   256</i>
   <i name="APACO">     16.00000000</i>
  </separator>
  <separator name="symmetry" >
   <i type="int" name="ISYM">     0</i>
   <i name="SYMPREC">      0.00001000</i>
  </separator>
  <separator name="dos" >
   <i type="int" name="LORBIT">     0</i>
   <v name="RWIGS">     -1.00000000     -1.00000000</v>
   <i type="int" name="NEDOS">   301</i>
   <i name="EMIN">     10.00000000</i>
   <i name="EMAX">    -10.00000000</i>
   <i name="EFERMI">      0.00000000</i>
  </separator>
  <separator name="writing" >
   <i type="int" name="NWRITE">     2</i>
   <i type="logical" name="LWAVE"> F  </i>
   <i type="logical" name="LDOWNSAMPLE"> F  </i>
   <i type="logical" name="LCHARG"> F  </i>
   <i type="logical" name="LPARD"> F  </i>
   <i type="logical" name="LVTOT"> F  </i>
   <i type="logical" name="LVHAR"> F  </i>
   <i type="logical" name="LELF"> F  </i>
   <i type="logical" name="LOPTICS"> F  </i>
   <v name="STM">      0.00000000      0.00000000      0.00000000      0.00000000      0.00000000      0.00000000      0.00000000</v>
  </separator>
  <separator name="performance" >
   <i type="int" name="NPAR">     8</i>
   <i type="int" name="NSIM">     4</i>
   <i type="int" name="NBLK">    -1</i>
   <i type="logical" name="LPLANE"> T  </i>
   <i type="logical" name="LSCALAPACK"> T  </i>
   <i type="logical" name="LSCAAWARE"> F  </i>
   <i type="logical" name="LSCALU"> F  </i>
   <i type="logical" name="LASYNC"> F  </i>
   <i type="logical" name="LORBITALREAL"> F  </i>
  </separator>
  <separator name="miscellaneous" >
   <i type="int" name="IDIOT">     3</i>
   <i type="int" name="PHON_NSTRUCT">    -1</i>
   <i type="logical" name="LMUSIC"> F  </i>
   <v name="POMASS">     12.01100000     28.08500000</v>
   <v name="DARWINR">      0.00000000      0.00000000</v>
   <v name="DARWINV">      1.00000000      1.00000000</v>
   <i type="logical" name="LCORR"> T  </i>
  </separator>
  <i type="logical" name="GGA_COMPAT"> T  </i>
  <i type="logical" name="LBERRY"> F  </i>
  <i type="int" name="ICORELEVEL">     0</i>
  <i type="logical" name="LDAU"> F  </i>
  <i type="int" name="I_CONSTRAINED_M">     0</i>
  <separator name="electronic exchange-correlation" >
   <i type="string" name="GGA">PE</i>
   <i type="int" name="VOSKOWN">     0</i>
   <i type="logical" name="LHFCALC"> F  </i>
   <i type="string" name="PRECFOCK"></i>
   <i type="logical" name="LSYMGRAD"> F  </i>
   <i type="logical" name="LHFONE"> F  </i>
   <i type="logical" name="LRHFCALC"> F  </i>
   <i type="logical" name="LTHOMAS"> F  </i>
   <i type="logical" name="LMODELHF"> F  </i>
   <i type="logical" name="LFOCKACE"> F  </i>
   <i name="ENCUT4O">     -1.00000000</i>
   <i type="int" name="EXXOEP">     0</i>
   <i type="int" name="FOURORBIT">     0</i>
   <i name="AEXX">      0.00000000</i>
   <i name="HFALPHA">      0.00000000</i>
   <i name="MCALPHA">      0.00000000</i>
   <i name="ALDAX">      1.00000000</i>
   <i name="AGGAX">      1.00000000</i>
   <i name="ALDAC">      1.00000000</i>
   <i name="AGGAC">      1.00000000</i>
   <i type="int" name="NKREDX">     1</i>
   <i type="int" name="NKREDY">     1</i>
   <i type="int" name="NKREDZ">     1</i>
   <i type="logical" name="SHIFTRED"> F  </i>
   <i type="logical" name="ODDONLY"> F  </i>
   <i type="logical" name="EVENONLY"> F  </i>
   <i type="int" name="LMAXFOCK">     0</i>
   <i type="int" name="NMAXFOCKAE">     0</i>
   <i type="logical" name="LFOCKAEDFT"> F  </i>
   <i name="HFSCREEN">      0.00000000</i>
   <i name="HFSCREENC">      0.00000000</i>
   <i type="int" name="NBANDSGWLOW">     0</i>
  </separator>
  <separator name="vdW DFT" >
   <i type="logical" name="LUSE_VDW"> F  </i>
   <i name="Zab_VDW">     -0.84910000</i>
   <i name="PARAM1">      0.12340000</i>
   <i name="PARAM2">      1.00000000</i>
   <i name="PARAM3">      0.00000000</i>
  </separator>
  <separator name="model GW" >
   <i type="int" name="MODEL_GW">     0</i>
   <i name="MODEL_EPS0">      6.26613487</i>
   <i name="MODEL_ALPHA">      1.00000000</i>
  </separator>
  <separator name="linear response parameters" >
   <i type="logical" name="LEPSILON"> F  </i>
   <i type="logical" name="LRPA"> F  </i>
   <i type="logical" name="LNABLA"> F  </i>
   <i type="logical" name="LVEL"> F  </i>
   <i type="int" name="KINTER">     0</i>
   <i name="CSHIFT">      0.10000000</i>
   <i name="OMEGAMAX">     -1.00000000</i>
   <i name="DEG_THRESHOLD">      0.00200000</i>
   <i name="RTIME">     -0.10000000</i>
   <i name="WPLASMAI">      0.00000000</i>
   <v name="DFIELD">      0.00000000      0.00000000      0.00000000</v>
   <v name="WPLASMA">      0.00000000      0.00000000      0.00000000      0.00000000      0.00000000      0.00000000      0.00000000      0.00000000      0.00000000</v>
  </separator>
  <separator name="orbital magnetization" >
   <i type="logical" name="NUCIND"> F  </i>
   <v name="MAGPOS">      0.00000000      0.00000000      0.00000000</v>
   <i type="logical" name="LNICSALL"> T  </i>
   <i type="logical" name="ORBITALMAG"> F  </i>
   <i type="logical" name="LMAGBLOCH"> F  </i>
   <i type="logical" name="LCHIMAG"> F  </i>
   <i type="logical" name="LGAUGE"> T  </i>
   <i type="int" name="MAGATOM">     0</i>
   <v name="MAGDIPOL">      0.00000000      0.00000000      0.00000000</v>
   <v name="AVECCONST">      0.00000000      0.00000000      0.00000000</v>
  </separator>
  <separator name="response functions" >
   <i type="logical" name="LFINITE_TEMPERATURE"> F  </i>
   <i type="logical" name="LADDER"> F  </i>
   <i type="logical" name="LRPAFORCE"> F  </i>
   <i type="logical" name="LFXC"> F  </i>
   <i type="logical" name="LHARTREE"> T  </i>
   <i type="int" name="IBSE">     0</i>
   <v type="int" name="KPOINT">    -1     0     0     0</v>
   <i type="logical" name="LTCTC"> F  </i>
   <i type="logical" name="LTCTE"> F  </i>
   <i type="logical" name="LTETE"> F  </i>
   <i type="logical" name="LTRIPLET"> F  </i>
   <i type="logical" name="LFXCEPS"> F  </i>
   <i type="logical" name="LFXHEG"> F  </i>
   <i type="int" name="NATURALO">     2</i>
   <i type="logical" name="LHOLEGF"> F  </i>
   <i type="logical" name="L2ORDER"> F  </i>
   <i type="logical" name="LDMP1"> F  </i>
   <i type="logical" name="LMP2LT"> F  </i>
   <i type="logical" name="LSMP2LT"> F  </i>
   <i type="logical" name="LGWLF"> F  </i>
   <i name="ENCUTGW">     -2.00000000</i>
   <i name="ENCUTGWSOFT">     -2.00000000</i>
   <i name="ENCUTLF">     -1.00000000</i>
   <i type="logical" name="LESF_SPLINES"> F  </i>
   <i type="int" name="LMAXMP2">    -1</i>
   <i name="SCISSOR">      0.00000000</i>
   <i type="int" name="NOMEGA">     0</i>
   <i type="int" name="NOMEGAR">     0</i>
   <i type="int" name="NBANDSGW">    -1</i>
   <i type="int" name="NBANDSO">    -1</i>
   <i type="int" name="NBANDSV">    -1</i>
   <i type="int" name="NELM">    60</i>
   <i type="int" name="NELMHF">     1</i>
   <i type="int" name="DIM">     3</i>
   <i type="int" name="IESPILON">     4</i>
   <i type="int" name="ANTIRES">     0</i>
   <i name="OMEGAMAX">    -30.00000000</i>
   <i name="OMEGAMIN">    -30.00000000</i>
   <i name="OMEGATL">   -200.00000000</i>
   <i type="int" name="OMEGAGRID">     0</i>
   <i name="CSHIFT">     -0.10000000</i>
   <i type="logical" name="LSELFENERGY"> F  </i>
   <i type="logical" name="LSPECTRAL"> F  </i>
   <i type="logical" name="LSPECTRALGW"> F  </i>
   <i type="logical" name="LSINGLES"> F  </i>
   <i type="logical" name="LFERMIGW"> F  </i>
   <i type="logical" name="ODDONLYGW"> F  </i>
   <i type="logical" name="EVENONLYGW"> F  </i>
   <i type="int" name="NKREDLFX">     1</i>
   <i type="int" name="NKREDLFY">     1</i>
   <i type="int" name="NKREDLFZ">     1</i>
   <i type="int" name="MAXMEM">  2800</i>
   <i type="int" name="TELESCOPE">     0</i>
   <i type="int" name="NTAUPAR">    -1</i>
   <i type="int" name="NOMEGAPAR">    -1</i>
   <i name="DAMP_NEWTON">      0.80000001</i>
   <i name="LAMBDA">      1.00000000</i>
  </separator>
  <separator name="External order field" >
   <i name="OFIELD_KAPPA">      0.00000000</i>
   <v name="OFIELD_K">      0.00000000      0.00000000      0.00000000</v>
   <i name="OFIELD_Q6_NEAR">      0.00000000</i>
   <i name="OFIELD_Q6_FAR">      0.00000000</i>
   <i name="OFIELD_A">      0.00000000</i>
  </separator>
 </parameters>
 <atominfo>
  <atoms>      64 </atoms>
  <types>       2 </types>
  <array name="atoms" >
   <dimension dim="1">ion</dimension>
   <field type="string">element</field>
   <field type="int">atomtype</field>
   <set>
    <rc><c>C </c><c>   1</c></rc>
    <rc><c>C </c><c>   1</c></rc>
    <rc><c>C </c><c>   1</c></rc>
    <rc><c>C </c><c>   1</c></rc>
    <rc><c>C </c><c>   1</c></rc>
    <rc><c>C </c><c>   1</c></rc>
    <rc><c>C </c><c>   1</c></rc>
    <rc><c>C </c><c>   1</c></rc>
    <rc><c>C </c><c>   1</c></rc>
    <rc><c>C </c><c>   1</c></rc>
    <rc><c>C </c><c>   1</c></rc>
    <rc><c>C </c><c>   1</c></rc>
    <rc><c>C </c><c>   1</c></rc>
    <rc><c>C </c><c>   1</c></rc>
    <rc><c>C </c><c>   1</c></rc>
    <rc><c>C </c><c>   1</c></rc>
    <rc><c>C </c><c>   1</c></rc>
    <rc><c>C </c><c>   1</c></rc>
    <rc><c>C </c><c>   1</c></rc>
    <rc><c>C </c><c>   1</c></rc>
    <rc><c>C </c><c>   1</c></rc>
    <rc><c>C </c><c>   1</c></rc>
    <rc><c>C </c><c>   1</c></rc>
    <rc><c>C </c><c>   1</c></rc>
    <rc><c>C </c><c>   1</c></rc>
    <rc><c>C </c><c>   1</c></rc>
    <rc><c>C </c><c>   1</c></rc>
    <rc><c>C </c><c>   1</c></rc>
    <rc><c>C </c><c>   1</c></rc>
    <rc><c>C </c><c>   1</c></rc>
    <rc><c>C </c><c>   1</c></rc>
    <rc><c>C </c><c>   1</c></rc>
    <rc><c>Si</c><c>   2</c></rc>
    <rc><c>Si</c><c>   2</c></rc>
    <rc><c>Si</c><c>   2</c></rc>
    <rc><c>Si</c><c>   2</c></rc>
    <rc><c>Si</c><c>   2</c></rc>
    <rc><c>Si</c><c>   2</c></rc>
    <rc><c>Si</c><c>   2</c></rc>
    <rc><c>Si</c><c>   2</c></rc>
    <rc><c>Si</c><c>   2</c></rc>
    <rc><c>Si</c><c>   2</c></rc>
    <rc><c>Si</c><c>   2</c></rc>
    <rc><c>Si</c><c>   2</c></rc>
    <rc><c>Si</c><c>   2</c></rc>
    <rc><c>Si</c><c>   2</c></rc>
    <rc><c>Si</c><c>   2</c></rc>
    <rc><c>Si</c><c>   2</c></rc>
    <rc><c>Si</c><c>   2</c></rc>
    <rc><c>Si</c><c>   2</c></rc>
    <rc><c>Si</c><c>   2</c></rc>
    <rc><c>Si</c><c>   2</c></rc>
    <rc><c>Si</c><c>   2</c></rc>
    <rc><c>Si</c><c>   2</c></rc>
    <rc><c>Si</c><c>   2</c></rc>
    <rc><c>Si</c><c>   2</c></rc>
    <rc><c>Si</c><c>   2</c></rc>
    <rc><c>Si</c><c>   2</c></rc>
    <rc><c>Si</c><c>   2</c></rc>
    <rc><c>Si</c><c>   2</c></rc>
    <rc><c>Si</c><c>   2</c></rc>
    <rc><c>Si</c><c>   2</c></rc>
    <rc><c>Si</c><c>   2</c></rc>
    <rc><c>Si</c><c>   2</c></rc>
   </set>
  </array>
  <array name="atomtypes" >
   <dimension dim="1">type</dimension>
   <field type="int">atomspertype</field>
   <field type="string">element</field>
   <field>mass</field>
   <field>valence</field>
   <field type="string">pseudopotential</field>
   <set>
    <rc><c>  32</c><c>C </c><c>     12.01100000</c><c>      4.00000000</c><c>  PAW_PBE C 08Apr2002                   </c></rc>
    <rc><c>  32</c><c>Si</c><c>     28.08500000</c><c>      4.00000000</c><c>  PAW_PBE Si 05Jan2001                  </c></rc>
   </set>
  </array>
 </atominfo>
 <structure name="initialpos" >
  <crystal>
   <varray name="basis" >
    <v>       8.74331558       0.00000000       0.00000000 </v>
    <v>       0.00000000       8.74331558       0.00000000 </v>
    <v>       0.00000000       0.00000000       8.74331558 </v>
   </varray>
   <i name="volume">    668.38771987 </i>
   <varray name="rec_basis" >
    <v>       0.11437309       0.00000000       0.00000000 </v>
    <v>       0.00000000       0.11437309       0.00000000 </v>
    <v>       0.00000000       0.00000000       0.11437309 </v>
   </varray>
  </crystal>
  <varray name="positions" >
   <v>       0.12121308       0.12192677       0.12574099 </v>
   <v>       0.12544393       0.37286935       0.37707922 </v>
   <v>       0.37366544       0.12412948       0.37220360 </v>
   <v>       0.36756805       0.37834815       0.12741159 </v>
   <v>       0.12780685       0.12360985       0.62736397 </v>
   <v>       0.12430222       0.37354459       0.87883421 </v>
   <v>       0.37435396       0.12542208       0.87341383 </v>
   <v>       0.37140203       0.37314559       0.62541123 </v>
   <v>       0.12656123       0.62375760       0.12182809 </v>
   <v>       0.12727489       0.87373764       0.37387792 </v>
   <v>       0.37806244       0.62278387       0.37682605 </v>
   <v>       0.37658338       0.87723655       0.12625234 </v>
   <v>       0.12421622       0.62477643       0.62435611 </v>
   <v>       0.12927603       0.87570606       0.88036005 </v>
   <v>       0.37463189       0.62813741       0.87351102 </v>
   <v>       0.37714720       0.87518749       0.62694942 </v>
   <v>       0.62513753       0.12545567       0.12719012 </v>
   <v>       0.62293713       0.37262828       0.37362842 </v>
   <v>       0.87452150       0.12301263       0.37699584 </v>
   <v>       0.87885320       0.37766900       0.12704913 </v>
   <v>       0.62449638       0.12573284       0.62547559 </v>
   <v>       0.62235871       0.37962508       0.86990457 </v>
   <v>       0.87789379       0.12734796       0.87841670 </v>
   <v>       0.87411737       0.37299628       0.62223896 </v>
   <v>       0.62590707       0.62698599       0.12302700 </v>
   <v>       0.62562675       0.87254728       0.37686311 </v>
   <v>       0.86986246       0.62518836       0.37585007 </v>
   <v>       0.87526340       0.87799904       0.12298678 </v>
   <v>       0.62305526       0.62604211       0.62473078 </v>
   <v>       0.62496330       0.87413822       0.87502498 </v>
   <v>       0.87737693       0.62265102       0.87520588 </v>
   <v>       0.87160460       0.87775764       0.62561518 </v>
   <v>       0.00101722       0.00065764       0.99570169 </v>
   <v>       0.00512707       0.24920419       0.24778898 </v>
   <v>       0.25174958       0.00259701       0.24865843 </v>
   <v>       0.24878616       0.24658389       0.99984193 </v>
   <v>       0.99917934       0.00196248       0.49835287 </v>
   <v>       0.00201047       0.25212113       0.74856599 </v>
   <v>       0.25019132       0.00300307       0.75182953 </v>
   <v>       0.24849968       0.24867126       0.50329283 </v>
   <v>       0.99883190       0.49904481       0.00171684 </v>
   <v>       0.00133350       0.74645532       0.24663563 </v>
   <v>       0.25513357       0.49929368       0.24783791 </v>
   <v>       0.24955438       0.74515134       0.00584857 </v>
   <v>       0.99977246       0.50042560       0.50158829 </v>
   <v>       0.99917396       0.74960529       0.74991496 </v>
   <v>       0.24664400       0.50057532       0.74991003 </v>
   <v>       0.24771257       0.74947822       0.49792678 </v>
   <v>       0.49823164       0.99839591       0.00151538 </v>
   <v>       0.50188072       0.25042172       0.25004415 </v>
   <v>       0.75318094       0.99754324       0.25115418 </v>
   <v>       0.75416411       0.24940440       0.99603015 </v>
   <v>       0.49991014       0.00013745       0.50089555 </v>
   <v>       0.50026424       0.25152712       0.75195218 </v>
   <v>       0.75450299       0.00225982       0.75418234 </v>
   <v>       0.75146967       0.25425754       0.49999698 </v>
   <v>       0.50110245       0.49880988       0.00311989 </v>
   <v>       0.49813103       0.75186648       0.24889934 </v>
   <v>       0.75285985       0.49744442       0.25002350 </v>
   <v>       0.74808699       0.74486950       0.99562679 </v>
   <v>       0.49812661       0.49779659       0.50276430 </v>
   <v>       0.49929829       0.74686795       0.75191133 </v>
   <v>       0.75195864       0.50285433       0.75053824 </v>
   <v>       0.75146605       0.75089777       0.50160295 </v>
  </varray>
 </structure>
 <calculation>
  <scstep>
   <time name="dav">   17.69   17.71</time>
   <time name="total">   17.74   17.77</time>
   <energy>
    <i name="alphaZ">    354.85177120 </i>
    <i name="ewald">  -9081.10639076 </i>
    <i name="hartreedc">   -671.96403400 </i>
    <i name="XCdc">    145.84724529 </i>
    <i name="pawpsdc">   6292.66707184 </i>
    <i name="pawaedc">  -5747.90303932 </i>
    <i name="eentropy">      0.01506942 </i>
    <i name="bandstr">   1370.37360228 </i>
    <i name="atom">   8006.17504320 </i>
    <i name="e_fr_energy">    668.95633915 </i>
    <i name="e_wo_entrp">    668.94126973 </i>
    <i name="e_0_energy">    668.95131601 </i>
   </energy>
  </scstep>
  <scstep>
   <time name="dav">   16.79   16.82</time>
   <time name="total">   17.15   17.19</time>
   <energy>
    <i name="e_fr_energy">   -462.36827714 </i>
    <i name="e_wo_entrp">   -462.38133208 </i>
    <i name="e_0_energy">   -462.37262878 </i>
   </energy>
  </scstep>
  <scstep>
   <time name="dav">   15.53   15.61</time>
   <time name="total">   15.53   15.61</time>
   <energy>
    <i name="e_fr_energy">   -537.64026553 </i>
    <i name="e_wo_entrp">   -537.66152450 </i>
    <i name="e_0_energy">   -537.64735185 </i>
   </energy>
  </scstep>
  <scstep>
   <time name="dav">   15.55   15.64</time>
   <time name="total">   15.55   15.64</time>
   <energy>
    <i name="e_fr_energy">   -539.30242622 </i>
    <i name="e_wo_entrp">   -539.32418729 </i>
    <i name="e_0_energy">   -539.30967991 </i>
   </energy>
  </scstep>
  <scstep>
   <time name="dav">   15.15   15.26</time>
   <time name="total">   15.39   15.50</time>
   <energy>
    <i name="e_fr_energy">   -539.35143900 </i>
    <i name="e_wo_entrp">   -539.37323308 </i>
    <i name="e_0_energy">   -539.35870370 </i>
   </energy>
  </scstep>
  <scstep>
   <time name="dav">   14.16   14.19</time>
   <time name="total">   14.47   14.49</time>
   <energy>
    <i name="e_fr_energy">   -482.65741760 </i>
    <i name="e_wo_entrp">   -482.66830265 </i>
    <i name="e_0_energy">   -482.66104595 </i>
   </energy>
  </scstep>
  <scstep>
   <time name="dav">   16.03   16.06</time>
   <time name="total">   16.82   16.89</time>
   <energy>
    <i name="e_fr_energy">   -481.30270765 </i>
    <i name="e_wo_entrp">   -481.31244727 </i>
    <i name="e_0_energy">   -481.30595419 </i>
   </energy>
  </scstep>
  <scstep>
   <time name="dav">   14.39   14.42</time>
   <time name="total">   14.73   14.78</time>
   <energy>
    <i name="e_fr_energy">   -481.07419854 </i>
    <i name="e_wo_entrp">   -481.08412799 </i>
    <i name="e_0_energy">   -481.07750836 </i>
   </energy>
  </scstep>
  <scstep>
   <time name="dav">   14.40   14.48</time>
   <time name="total">   14.75   14.85</time>
   <energy>
    <i name="e_fr_energy">   -481.05779981 </i>
    <i name="e_wo_entrp">   -481.06762266 </i>
    <i name="e_0_energy">   -481.06107409 </i>
   </energy>
  </scstep>
  <scstep>
   <time name="dav">   15.03   15.12</time>
   <time name="total">   15.38   15.47</time>
   <energy>
    <i name="e_fr_energy">   -481.06081417 </i>
    <i name="e_wo_entrp">   -481.07063831 </i>
    <i name="e_0_energy">   -481.06408888 </i>
   </energy>
  </scstep>
  <scstep>
   <time name="dav">   14.02   14.09</time>
   <time name="total">   14.58   14.69</time>
   <energy>
    <i name="e_fr_energy">   -481.06182436 </i>
    <i name="e_wo_entrp">   -481.07164835 </i>
    <i name="e_0_energy">   -481.06509903 </i>
   </energy>
  </scstep>
  <scstep>
   <time name="dav">   16.35   16.44</time>
   <time name="total">   16.71   16.81</time>
   <energy>
    <i name="e_fr_energy">   -481.06187451 </i>
    <i name="e_wo_entrp">   -481.07169449 </i>
    <i name="e_0_energy">   -481.06514784 </i>
   </energy>
  </scstep>
  <scstep>
   <time name="dav">   13.94   13.97</time>
   <time name="total">   14.42   14.52</time>
   <energy>
    <i name="e_fr_energy">   -481.06188650 </i>
    <i name="e_wo_entrp">   -481.07170869 </i>
    <i name="e_0_energy">   -481.06516056 </i>
   </energy>
  </scstep>
  <scstep>
   <time name="dav">   14.56   14.59</time>
   <time name="total">   14.93   14.96</time>
   <energy>
    <i name="e_fr_energy">   -481.06189284 </i>
    <i name="e_wo_entrp">   -481.07171470 </i>
    <i name="e_0_energy">   -481.06516679 </i>
   </energy>
  </scstep>
  <scstep>
   <time name="dav">   15.50   15.53</time>
   <time name="total">   16.24   16.31</time>
   <energy>
    <i name="e_fr_energy">   -481.06189464 </i>
    <i name="e_wo_entrp">   -481.07171625 </i>
    <i name="e_0_energy">   -481.06516851 </i>
   </energy>
  </scstep>
  <scstep>
   <time name="dav">   15.50   15.53</time>
   <time name="total">   15.87   15.90</time>
   <energy>
    <i name="e_fr_energy">   -481.06189434 </i>
    <i name="e_wo_entrp">   -481.07171611 </i>
    <i name="e_0_energy">   -481.06516827 </i>
   </energy>
  </scstep>
  <scstep>
   <time name="dav">   14.11   14.14</time>
   <time name="total">   14.51   14.56</time>
   <energy>
    <i name="e_fr_energy">   -481.06189465 </i>
    <i name="e_wo_entrp">   -481.07171638 </i>
    <i name="e_0_energy">   -481.06516856 </i>
   </energy>
  </scstep>
  <scstep>
   <time name="dav">    9.13    9.15</time>
   <time name="total">    9.50    9.52</time>
   <energy>
    <i name="e_fr_energy">   -481.06189467 </i>
    <i name="e_wo_entrp">   -481.07171638 </i>
    <i name="e_0_energy">   -481.06516857 </i>
   </energy>
  </scstep>
  <scstep>
   <time name="dav">    9.02    9.04</time>
   <time name="total">    9.39    9.41</time>
   <energy>
    <i name="e_fr_energy">   -481.06189464 </i>
    <i name="e_wo_entrp">   -481.07171634 </i>
    <i name="e_0_energy">   -481.06516854 </i>
   </energy>
  </scstep>
  <scstep>
   <time name="dav">    9.36    9.38</time>
   <time name="total">    9.70    9.75</time>
   <energy>
    <i name="alphaZ">    354.85177120 </i>
    <i name="ewald">  -9081.10639076 </i>
    <i name="hartreedc">  -1024.69879464 </i>
    <i name="XCdc">    179.28954941 </i>
    <i name="pawpsdc">  33057.97015954 </i>
    <i name="pawaedc"> -32518.91118620 </i>
    <i name="eentropy">      0.00982171 </i>
    <i name="bandstr">    545.35813189 </i>
    <i name="atom">   8006.17504320 </i>
    <i name="e_fr_energy">   -481.06189465 </i>
    <i name="e_wo_entrp">   -481.07171635 </i>
    <i name="e_0_energy">   -481.06516855 </i>
   </energy>
  </scstep>
  <structure>
   <crystal>
    <varray name="basis" >
     <v>       8.74331558       0.00000000       0.00000000 </v>
     <v>       0.00000000       8.74331558       0.00000000 </v>
     <v>       0.00000000       0.00000000       8.74331558 </v>
    </varray>
    <i name="volume">    668.38771987 </i>
    <varray name="rec_basis" >
     <v>       0.11437309       0.00000000       0.00000000 </v>
     <v>       0.00000000       0.11437309       0.00000000 </v>
     <v>       0.00000000       0.00000000       0.11437309 </v>
    </varray>
   </crystal>
   <varray name="positions" >
    <v>       0.12121308       0.12192677       0.12574099 </v>
    <v>       0.12544393       0.37286935       0.37707922 </v>
    <v>       0.37366544       0.12412948       0.37220360 </v>
    <v>       0.36756805       0.37834815       0.12741159 </v>
    <v>       0.12780685       0.12360985       0.62736397 </v>
    <v>       0.12430222       0.37354459       0.87883421 </v>
    <v>       0.37435396       0.12542208       0.87341383 </v>
    <v>       0.37140203       0.37314559       0.62541123 </v>
    <v>       0.12656123       0.62375760       0.12182809 </v>
    <v>       0.12727489       0.87373764       0.37387792 </v>
    <v>       0.37806244       0.62278387       0.37682605 </v>
    <v>       0.37658338       0.87723655       0.12625234 </v>
    <v>       0.12421622       0.62477643       0.62435611 </v>
    <v>       0.12927603       0.87570606       0.88036005 </v>
    <v>       0.37463189       0.62813741       0.87351102 </v>
    <v>       0.37714720       0.87518749       0.62694942 </v>
    <v>       0.62513753       0.12545567       0.12719012 </v>
    <v>       0.62293713       0.37262828       0.37362842 </v>
    <v>       0.87452150       0.12301263       0.37699584 </v>
    <v>       0.87885320       0.37766900       0.12704913 </v>
    <v>       0.62449638       0.12573284       0.62547559 </v>
    <v>       0.62235871       0.37962508       0.86990457 </v>
    <v>       0.87789379       0.12734796       0.87841670 </v>
    <v>       0.87411737       0.37299628       0.62223896 </v>
    <v>       0.62590707       0.62698599       0.12302700 </v>
    <v>       0.62562675       0.87254728       0.37686311 </v>
    <v>       0.86986246       0.62518836       0.37585007 </v>
    <v>       0.87526340       0.87799904       0.12298678 </v>
    <v>       0.62305526       0.62604211       0.62473078 </v>
    <v>       0.62496330       0.87413822       0.87502498 </v>
    <v>       0.87737693       0.62265102       0.87520588 </v>
    <v>       0.87160460       0.87775764       0.62561518 </v>
    <v>       0.00101722       0.00065764       0.99570169 </v>
    <v>       0.00512707       0.24920419       0.24778898 </v>
    <v>       0.25174958       0.00259701       0.24865843 </v>
    <v>       0.24878616       0.24658389       0.99984193 </v>
    <v>       0.99917934       0.00196248       0.49835287 </v>
    <v>       0.00201047       0.25212113       0.74856599 </v>
    <v>       0.25019132       0.00300307       0.75182953 </v>
    <v>       0.24849968       0.24867126       0.50329283 </v>
    <v>       0.99883190       0.49904481       0.00171684 </v>
    <v>       0.00133350       0.74645532       0.24663563 </v>
    <v>       0.25513357       0.49929368       0.24783791 </v>
    <v>       0.24955438       0.74515134       0.00584857 </v>
    <v>       0.99977246       0.50042560       0.50158829 </v>
    <v>       0.99917396       0.74960529       0.74991496 </v>
    <v>       0.24664400       0.50057532       0.74991003 </v>
    <v>       0.24771257       0.74947822       0.49792678 </v>
    <v>       0.49823164       0.99839591       0.00151538 </v>
    <v>       0.50188072       0.25042172       0.25004415 </v>
    <v>       0.75318094       0.99754324       0.25115418 </v>
    <v>       0.75416411       0.24940440       0.99603015 </v>
    <v>       0.49991014       0.00013745       0.50089555 </v>
    <v>       0.50026424       0.25152712       0.75195218 </v>
    <v>       0.75450299       0.00225982       0.75418234 </v>
    <v>       0.75146967       0.25425754       0.49999698 </v>
    <v>       0.50110245       0.49880988       0.00311989 </v>
    <v>       0.49813103       0.75186648       0.24889934 </v>
    <v>       0.75285985       0.49744442       0.25002350 </v>
    <v>       0.74808699       0.74486950       0.99562679 </v>
    <v>       0.49812661       0.49779659       0.50276430 </v>
    <v>       0.49929829       0.74686795       0.75191133 </v>
    <v>       0.75195864       0.50285433       0.75053824 </v>
    <v>       0.75146605       0.75089777       0.50160295 </v>
   </varray>
  </structure>
  <varray name="forces" >
   <v>       0.90888483       0.28892438      -0.49003407 </v>
   <v>       0.11727738       0.52182905      -0.31663836 </v>
   <v>       0.30754935       0.42846659       0.68659841 </v>
   <v>       1.86694190      -1.39888712      -1.05674167 </v>
   <v>      -0.83053053       0.15094035      -0.25938307 </v>
   <v>      -0.08352715       0.29310674      -0.64633882 </v>
   <v>       0.35514834       0.15209259       0.76738340 </v>
   <v>       0.31003056       0.28798658       0.34105305 </v>
   <v>      -0.34964824      -0.50808877       0.96550527 </v>
   <v>      -0.54261011       0.18615392      -0.19535716 </v>
   <v>      -0.57066378       0.37029294      -0.48371507 </v>
   <v>      -0.60957145      -0.56433804      -0.05414321 </v>
   <v>      -0.23251845       0.13423588       0.11029996 </v>
   <v>      -0.56647077      -0.33499982      -0.88142361 </v>
   <v>      -0.27835565      -1.02593777       0.75225724 </v>
   <v>      -0.68241546      -0.11042251      -0.21308607 </v>
   <v>       0.31021494       0.00541918      -0.69318981 </v>
   <v>       0.47190874       0.64827679       0.33724158 </v>
   <v>       0.28930391       0.81521212      -0.52464180 </v>
   <v>      -0.44579867      -0.74460832      -0.35616381 </v>
   <v>       0.40115409       0.31047602       0.26915062 </v>
   <v>       0.79945325      -0.65274931       1.12971877 </v>
   <v>       0.16154858      -0.08353447      -1.09110480 </v>
   <v>       0.42040774       0.78352049       0.84728670 </v>
   <v>      -0.16085236      -0.75364614       0.51850704 </v>
   <v>      -0.04288965       0.43306457      -0.33756350 </v>
   <v>       1.21962714      -0.14398528      -0.08467813 </v>
   <v>       0.09505296      -1.04671353      -0.31793659 </v>
   <v>       0.55907366      -0.38693356       0.19491634 </v>
   <v>       0.10533408       0.09890418       0.00354722 </v>
   <v>      -0.11473986       0.18439421      -0.11984857 </v>
   <v>       1.00206908      -0.31652540       0.20328112 </v>
   <v>      -0.05528950      -0.50444775       1.05859508 </v>
   <v>      -0.90047120      -0.00396596       0.88727477 </v>
   <v>      -0.46017719      -0.60473551       0.23991079 </v>
   <v>      -0.00359093       0.36410422       0.31770591 </v>
   <v>       0.41599591      -0.57204757       0.36855173 </v>
   <v>      -0.15408694      -0.28782855       0.19842945 </v>
   <v>       0.37050459      -1.17328933      -0.17498265 </v>
   <v>       0.37848395      -0.07946074      -0.78413713 </v>
   <v>       0.57014428       0.02320700      -0.29190206 </v>
   <v>      -0.45268615       0.78615290       0.39559518 </v>
   <v>      -1.41621751       0.45939654       1.39393129 </v>
   <v>       0.66683277       1.24674041      -1.15771095 </v>
   <v>      -0.11955111      -0.16089221      -0.69097777 </v>
   <v>       0.47121517       0.59444290       0.17508995 </v>
   <v>       0.53028259      -0.09782848       0.37539998 </v>
   <v>       0.89010188       0.19699961       0.51251958 </v>
   <v>       0.67453533       0.37673178      -0.38326753 </v>
   <v>      -0.76309602      -0.17063949      -0.11722074 </v>
   <v>      -0.66044992       0.18276044       0.00541328 </v>
   <v>      -1.05311801       0.66015187       1.02319045 </v>
   <v>       0.11942378      -0.15490314      -0.12439303 </v>
   <v>      -0.19261917      -0.28460331      -0.66948075 </v>
   <v>      -1.21106986      -0.08442219      -0.52669101 </v>
   <v>      -0.68737734      -1.27773258      -0.26568790 </v>
   <v>      -0.60038576       0.41610289      -0.60891669 </v>
   <v>       0.78670284      -0.30074946       0.60247164 </v>
   <v>      -0.95623948       0.52439548       0.11828520 </v>
   <v>       0.46441664       1.25669996       0.69987192 </v>
   <v>       0.36341490       0.07149772      -0.29563174 </v>
   <v>       0.12861242       0.96491314      -0.48865723 </v>
   <v>      -0.48442148      -0.37145643      -0.67315981 </v>
   <v>      -0.85020791      -0.01722067      -0.12417777 </v>
  </varray>
  <varray name="stress" >
   <v>       3.37003672      -0.82309917      -2.19039647 </v>
   <v>      -0.82309921       3.84786193       4.56699750 </v>
   <v>      -2.19039646       4.56699758       3.75753439 </v>
  </varray>
  <energy>
   <i name="e_fr_energy">   -481.06189465 </i>
   <i name="e_wo_entrp">   -481.07171635 </i>
   <i name="e_0_energy">   -481.06516855 </i>
  </energy>
  <time name="totalsc">  305.03  306.30</time>
  <eigenvalues>
   <array>
    <dimension dim="1">band</dimension>
    <dimension dim="2">kpoint</dimension>
    <dimension dim="3">spin</dimension>
    <field>eigene</field>
    <field>occ</field>
    <set>
     <set comment="spin 1">
      <set comment="kpoint 1">
       <r>   -7.3475    1.0000 </r>
       <r>   -5.8469    1.0000 </r>
       <r>   -5.8199    1.0000 </r>
       <r>   -5.7734    1.0000 </r>
       <r>   -5.7284    1.0000 </r>
       <r>   -5.7056    1.0000 </r>
       <r>   -5.6983    1.0000 </r>
       <r>   -4.4990    1.0000 </r>
       <r>   -4.4484    1.0000 </r>
       <r>   -4.4193    1.0000 </r>
       <r>   -4.3999    1.0000 </r>
       <r>   -4.3811    1.0000 </r>
       <r>   -4.3562    1.0000 </r>
       <r>   -4.3412    1.0000 </r>
       <r>   -4.3024    1.0000 </r>
       <r>   -4.2933    1.0000 </r>
       <r>   -4.2826    1.0000 </r>
       <r>   -4.2269    1.0000 </r>
       <r>   -4.2082    1.0000 </r>
       <r>   -3.8258    1.0000 </r>
       <r>   -3.7919    1.0000 </r>
       <r>   -3.7727    1.0000 </r>
       <r>   -3.7190    1.0000 </r>
       <r>   -2.4340    1.0000 </r>
       <r>   -2.4093    1.0000 </r>
       <r>   -2.3512    1.0000 </r>
       <r>   -2.2136    1.0000 </r>
       <r>   -2.1711    1.0000 </r>
       <r>   -2.1052    1.0000 </r>
       <r>   -2.0801    1.0000 </r>
       <r>   -2.0596    1.0000 </r>
       <r>   -2.0426    1.0000 </r>
       <r>   -0.5508    1.0000 </r>
       <r>   -0.4885    1.0000 </r>
       <r>   -0.4771    1.0000 </r>
       <r>   -0.4497    1.0000 </r>
       <r>    0.2188    1.0000 </r>
       <r>    0.2248    1.0000 </r>
       <r>    0.2343    1.0000 </r>
       <r>    0.9424    1.0000 </r>
       <r>    0.9565    1.0000 </r>
       <r>    0.9721    1.0000 </r>
       <r>    1.0013    1.0000 </r>
       <r>    1.0113    1.0000 </r>
       <r>    1.0330    1.0000 </r>
       <r>    1.9423    1.0000 </r>
       <r>    1.9936    1.0000 </r>
       <r>    2.0219    1.0000 </r>
       <r>    2.0493    1.0000 </r>
       <r>    2.0572    1.0000 </r>
       <r>    2.0709    1.0000 </r>
       <r>    2.0837    1.0000 </r>
       <r>    2.1061    1.0000 </r>
       <r>    2.1195    1.0000 </r>
       <r>    2.1257    1.0000 </r>
       <r>    2.1423    1.0000 </r>
       <r>    2.1683    1.0000 </r>
       <r>    2.9804    1.0000 </r>
       <r>    3.0198    1.0000 </r>
       <r>    3.0267    1.0000 </r>
       <r>    3.0412    1.0000 </r>
       <r>    3.0559    1.0000 </r>
       <r>    3.1063    1.0000 </r>
       <r>    3.2960    1.0000 </r>
       <r>    3.3210    1.0000 </r>
       <r>    3.3314    1.0000 </r>
       <r>    3.3478    1.0000 </r>
       <r>    3.3780    1.0000 </r>
       <r>    3.4032    1.0000 </r>
       <r>    3.6083    1.0000 </r>
       <r>    3.6189    1.0000 </r>
       <r>    3.6398    1.0000 </r>
       <r>    3.6441    1.0000 </r>
       <r>    3.6770    1.0000 </r>
       <r>    3.6877    1.0000 </r>
       <r>    3.7106    1.0000 </r>
       <r>    3.7227    1.0000 </r>
       <r>    3.7368    1.0000 </r>
       <r>    3.7391    1.0000 </r>
       <r>    3.7668    1.0000 </r>
       <r>    3.7863    1.0000 </r>
       <r>    4.5803    1.0000 </r>
       <r>    4.5831    1.0000 </r>
       <r>    4.6180    1.0000 </r>
       <r>    4.6570    1.0000 </r>
       <r>    4.6921    1.0000 </r>
       <r>    4.7060    1.0000 </r>
       <r>    4.8041    1.0000 </r>
       <r>    4.8272    1.0000 </r>
       <r>    4.8454    1.0000 </r>
       <r>    4.8573    1.0000 </r>
       <r>    4.8644    1.0000 </r>
       <r>    4.8958    1.0000 </r>
       <r>    5.9490    1.0000 </r>
       <r>    5.9948    1.0000 </r>
       <r>    6.0200    1.0000 </r>
       <r>    6.0462    1.0000 </r>
       <r>    6.0621    1.0000 </r>
       <r>    6.0722    1.0000 </r>
       <r>    6.0856    1.0000 </r>
       <r>    6.1050    1.0000 </r>
       <r>    6.1201    1.0000 </r>
       <r>    6.1327    1.0000 </r>
       <r>    6.1535    1.0000 </r>
       <r>    6.1669    1.0000 </r>
       <r>    6.6628    1.0000 </r>
       <r>    6.6973    1.0000 </r>
       <r>    6.7341    1.0000 </r>
       <r>    6.7540    1.0000 </r>
       <r>    6.7836    1.0000 </r>
       <r>    6.7894    1.0000 </r>
       <r>    6.8026    1.0000 </r>
       <r>    6.8250    1.0000 </r>
       <r>    6.8351    1.0000 </r>
       <r>    6.8383    1.0000 </r>
       <r>    6.8800    1.0000 </r>
       <r>    6.9015    1.0000 </r>
       <r>    6.9350    1.0000 </r>
       <r>    6.9622    1.0000 </r>
       <r>    6.9883    1.0000 </r>
       <r>    7.0013    1.0000 </r>
       <r>    7.0406    1.0000 </r>
       <r>    7.0536    1.0000 </r>
       <r>    7.1009    1.0000 </r>
       <r>    7.1167    1.0000 </r>
       <r>    7.9888    1.0018 </r>
       <r>    8.0333    0.9319 </r>
       <r>    8.0627    0.8594 </r>
       <r>    9.2922   -0.0000 </r>
       <r>    9.3738   -0.0000 </r>
       <r>    9.4035   -0.0000 </r>
       <r>   11.9365   -0.0000 </r>
       <r>   11.9604   -0.0000 </r>
       <r>   12.0033   -0.0000 </r>
       <r>   12.0173   -0.0000 </r>
       <r>   12.0532   -0.0000 </r>
       <r>   12.0736   -0.0000 </r>
       <r>   12.2500   -0.0000 </r>
       <r>   12.2745   -0.0000 </r>
       <r>   12.2938   -0.0000 </r>
       <r>   13.0444   -0.0000 </r>
       <r>   13.0705   -0.0000 </r>
       <r>   13.1413   -0.0000 </r>
       <r>   13.1744   -0.0000 </r>
       <r>   13.2116   -0.0000 </r>
       <r>   13.2370   -0.0000 </r>
       <r>   13.2884   -0.0000 </r>
       <r>   13.3052   -0.0000 </r>
       <r>   13.3099   -0.0000 </r>
       <r>   13.3458   -0.0000 </r>
       <r>   13.3931   -0.0000 </r>
       <r>   13.4078   -0.0000 </r>
       <r>   13.4575   -0.0000 </r>
       <r>   13.4650   -0.0000 </r>
       <r>   13.4754   -0.0000 </r>
       <r>   13.5120   -0.0000 </r>
       <r>   13.5178   -0.0000 </r>
       <r>   13.5440   -0.0000 </r>
       <r>   13.5447   -0.0000 </r>
       <r>   13.5700   -0.0000 </r>
       <r>   13.6036   -0.0000 </r>
       <r>   13.6265    0.0000 </r>
       <r>   14.0849    0.0000 </r>
       <r>   14.2364    0.0000 </r>
       <r>   14.2461    0.0000 </r>
       <r>   14.2803    0.0000 </r>
       <r>   14.2943    0.0000 </r>
       <r>   14.3468    0.0000 </r>
      </set>
      <set comment="kpoint 2">
       <r>   -7.1708    1.0000 </r>
       <r>   -6.6293    1.0000 </r>
       <r>   -5.6561    1.0000 </r>
       <r>   -5.6241    1.0000 </r>
       <r>   -5.5815    1.0000 </r>
       <r>   -5.5540    1.0000 </r>
       <r>   -5.1418    1.0000 </r>
       <r>   -5.1186    1.0000 </r>
       <r>   -5.0876    1.0000 </r>
       <r>   -5.0624    1.0000 </r>
       <r>   -4.5982    1.0000 </r>
       <r>   -4.3262    1.0000 </r>
       <r>   -4.2856    1.0000 </r>
       <r>   -4.2245    1.0000 </r>
       <r>   -4.1651    1.0000 </r>
       <r>   -3.9947    1.0000 </r>
       <r>   -3.9707    1.0000 </r>
       <r>   -3.9223    1.0000 </r>
       <r>   -3.9010    1.0000 </r>
       <r>   -3.4348    1.0000 </r>
       <r>   -3.4133    1.0000 </r>
       <r>   -3.3741    1.0000 </r>
       <r>   -3.3569    1.0000 </r>
       <r>   -3.2249    1.0000 </r>
       <r>   -2.5607    1.0000 </r>
       <r>   -2.5354    1.0000 </r>
       <r>   -2.5062    1.0000 </r>
       <r>   -2.4807    1.0000 </r>
       <r>   -2.3143    1.0000 </r>
       <r>   -2.3024    1.0000 </r>
       <r>   -2.1798    1.0000 </r>
       <r>   -2.1193    1.0000 </r>
       <r>   -0.0878    1.0000 </r>
       <r>   -0.0297    1.0000 </r>
       <r>   -0.0133    1.0000 </r>
       <r>    0.0106    1.0000 </r>
       <r>    0.3561    1.0000 </r>
       <r>    0.3697    1.0000 </r>
       <r>    0.7151    1.0000 </r>
       <r>    0.7305    1.0000 </r>
       <r>    0.9796    1.0000 </r>
       <r>    0.9931    1.0000 </r>
       <r>    1.0192    1.0000 </r>
       <r>    1.0731    1.0000 </r>
       <r>    1.0829    1.0000 </r>
       <r>    1.1336    1.0000 </r>
       <r>    1.1564    1.0000 </r>
       <r>    1.1683    1.0000 </r>
       <r>    1.2503    1.0000 </r>
       <r>    1.3765    1.0000 </r>
       <r>    1.4037    1.0000 </r>
       <r>    1.4191    1.0000 </r>
       <r>    1.4481    1.0000 </r>
       <r>    2.6766    1.0000 </r>
       <r>    2.6823    1.0000 </r>
       <r>    2.7084    1.0000 </r>
       <r>    2.7203    1.0000 </r>
       <r>    2.8918    1.0000 </r>
       <r>    2.9414    1.0000 </r>
       <r>    2.9538    1.0000 </r>
       <r>    2.9865    1.0000 </r>
       <r>    2.9968    1.0000 </r>
       <r>    3.0080    1.0000 </r>
       <r>    3.0272    1.0000 </r>
       <r>    3.0366    1.0000 </r>
       <r>    3.0667    1.0000 </r>
       <r>    3.5216    1.0000 </r>
       <r>    3.5271    1.0000 </r>
       <r>    3.6480    1.0000 </r>
       <r>    3.6543    1.0000 </r>
       <r>    3.9765    1.0000 </r>
       <r>    4.0212    1.0000 </r>
       <r>    4.0326    1.0000 </r>
       <r>    4.0622    1.0000 </r>
       <r>    4.3438    1.0000 </r>
       <r>    4.3570    1.0000 </r>
       <r>    4.3693    1.0000 </r>
       <r>    4.3881    1.0000 </r>
       <r>    4.4235    1.0000 </r>
       <r>    4.4298    1.0000 </r>
       <r>    4.4524    1.0000 </r>
       <r>    4.4787    1.0000 </r>
       <r>    4.6018    1.0000 </r>
       <r>    4.6531    1.0000 </r>
       <r>    4.6653    1.0000 </r>
       <r>    4.6894    1.0000 </r>
       <r>    4.7725    1.0000 </r>
       <r>    4.8146    1.0000 </r>
       <r>    4.8422    1.0000 </r>
       <r>    4.8723    1.0000 </r>
       <r>    4.9737    1.0000 </r>
       <r>    5.0006    1.0000 </r>
       <r>    5.3828    1.0000 </r>
       <r>    5.4243    1.0000 </r>
       <r>    5.5804    1.0000 </r>
       <r>    5.6103    1.0000 </r>
       <r>    5.6326    1.0000 </r>
       <r>    5.6565    1.0000 </r>
       <r>    5.8496    1.0000 </r>
       <r>    5.8759    1.0000 </r>
       <r>    5.9006    1.0000 </r>
       <r>    5.9304    1.0000 </r>
       <r>    6.1907    1.0000 </r>
       <r>    6.2350    1.0000 </r>
       <r>    6.2651    1.0000 </r>
       <r>    6.2917    1.0000 </r>
       <r>    6.3283    1.0000 </r>
       <r>    6.4418    1.0000 </r>
       <r>    6.4700    1.0000 </r>
       <r>    6.5007    1.0000 </r>
       <r>    6.5244    1.0000 </r>
       <r>    6.7372    1.0000 </r>
       <r>    6.7865    1.0000 </r>
       <r>    6.7994    1.0000 </r>
       <r>    6.8240    1.0000 </r>
       <r>    6.8500    1.0000 </r>
       <r>    6.8712    1.0000 </r>
       <r>    6.9082    1.0000 </r>
       <r>    6.9211    1.0000 </r>
       <r>    6.9452    1.0000 </r>
       <r>    6.9586    1.0000 </r>
       <r>    6.9889    1.0000 </r>
       <r>    7.0167    1.0000 </r>
       <r>    7.0420    1.0000 </r>
       <r>    7.0983    1.0000 </r>
       <r>    7.4845    1.0000 </r>
       <r>    7.6592    1.0012 </r>
       <r>    7.7226    1.0043 </r>
       <r>    9.6717   -0.0000 </r>
       <r>   10.1684   -0.0000 </r>
       <r>   10.2278   -0.0000 </r>
       <r>   10.6265   -0.0000 </r>
       <r>   11.9404   -0.0000 </r>
       <r>   11.9809   -0.0000 </r>
       <r>   12.4774   -0.0000 </r>
       <r>   12.5911   -0.0000 </r>
       <r>   12.6346   -0.0000 </r>
       <r>   12.6426   -0.0000 </r>
       <r>   12.6907   -0.0000 </r>
       <r>   12.9111   -0.0000 </r>
       <r>   12.9317   -0.0000 </r>
       <r>   12.9737   -0.0000 </r>
       <r>   12.9976   -0.0000 </r>
       <r>   13.0113   -0.0000 </r>
       <r>   13.0334   -0.0000 </r>
       <r>   13.0786   -0.0000 </r>
       <r>   13.1070   -0.0000 </r>
       <r>   13.1299   -0.0000 </r>
       <r>   13.1629   -0.0000 </r>
       <r>   13.2300   -0.0000 </r>
       <r>   13.4843   -0.0000 </r>
       <r>   13.5677   -0.0000 </r>
       <r>   13.6146   -0.0000 </r>
       <r>   13.6311    0.0000 </r>
       <r>   13.6483    0.0000 </r>
       <r>   13.6711    0.0000 </r>
       <r>   13.6954    0.0000 </r>
       <r>   13.7186    0.0000 </r>
       <r>   13.7508    0.0000 </r>
       <r>   13.9205    0.0000 </r>
       <r>   13.9709    0.0000 </r>
       <r>   13.9907    0.0000 </r>
       <r>   14.0427    0.0000 </r>
       <r>   14.4720    0.0000 </r>
       <r>   14.7556    0.0000 </r>
       <r>   14.7942    0.0000 </r>
       <r>   14.8642    0.0000 </r>
       <r>   14.8915    0.0000 </r>
      </set>
      <set comment="kpoint 3">
       <r>   -7.1704    1.0000 </r>
       <r>   -6.6300    1.0000 </r>
       <r>   -5.6786    1.0000 </r>
       <r>   -5.6158    1.0000 </r>
       <r>   -5.5626    1.0000 </r>
       <r>   -5.5472    1.0000 </r>
       <r>   -5.1931    1.0000 </r>
       <r>   -5.1169    1.0000 </r>
       <r>   -5.0710    1.0000 </r>
       <r>   -5.0455    1.0000 </r>
       <r>   -4.5914    1.0000 </r>
       <r>   -4.2830    1.0000 </r>
       <r>   -4.2709    1.0000 </r>
       <r>   -4.2477    1.0000 </r>
       <r>   -4.1803    1.0000 </r>
       <r>   -4.0194    1.0000 </r>
       <r>   -3.9732    1.0000 </r>
       <r>   -3.9484    1.0000 </r>
       <r>   -3.8792    1.0000 </r>
       <r>   -3.4628    1.0000 </r>
       <r>   -3.3883    1.0000 </r>
       <r>   -3.3615    1.0000 </r>
       <r>   -3.3378    1.0000 </r>
       <r>   -3.2378    1.0000 </r>
       <r>   -2.6133    1.0000 </r>
       <r>   -2.5213    1.0000 </r>
       <r>   -2.4976    1.0000 </r>
       <r>   -2.4511    1.0000 </r>
       <r>   -2.3191    1.0000 </r>
       <r>   -2.2996    1.0000 </r>
       <r>   -2.2012    1.0000 </r>
       <r>   -2.1012    1.0000 </r>
       <r>   -0.0850    1.0000 </r>
       <r>   -0.0265    1.0000 </r>
       <r>   -0.0167    1.0000 </r>
       <r>    0.0099    1.0000 </r>
       <r>    0.3560    1.0000 </r>
       <r>    0.3662    1.0000 </r>
       <r>    0.7164    1.0000 </r>
       <r>    0.7355    1.0000 </r>
       <r>    0.9714    1.0000 </r>
       <r>    0.9955    1.0000 </r>
       <r>    1.0336    1.0000 </r>
       <r>    1.0635    1.0000 </r>
       <r>    1.0883    1.0000 </r>
       <r>    1.1258    1.0000 </r>
       <r>    1.1538    1.0000 </r>
       <r>    1.1676    1.0000 </r>
       <r>    1.2511    1.0000 </r>
       <r>    1.3553    1.0000 </r>
       <r>    1.4166    1.0000 </r>
       <r>    1.4229    1.0000 </r>
       <r>    1.4540    1.0000 </r>
       <r>    2.6734    1.0000 </r>
       <r>    2.6890    1.0000 </r>
       <r>    2.7081    1.0000 </r>
       <r>    2.7347    1.0000 </r>
       <r>    2.8928    1.0000 </r>
       <r>    2.9307    1.0000 </r>
       <r>    2.9423    1.0000 </r>
       <r>    2.9827    1.0000 </r>
       <r>    2.9876    1.0000 </r>
       <r>    3.0203    1.0000 </r>
       <r>    3.0284    1.0000 </r>
       <r>    3.0389    1.0000 </r>
       <r>    3.0671    1.0000 </r>
       <r>    3.5217    1.0000 </r>
       <r>    3.5313    1.0000 </r>
       <r>    3.6485    1.0000 </r>
       <r>    3.6527    1.0000 </r>
       <r>    3.9694    1.0000 </r>
       <r>    4.0213    1.0000 </r>
       <r>    4.0319    1.0000 </r>
       <r>    4.0613    1.0000 </r>
       <r>    4.3227    1.0000 </r>
       <r>    4.3525    1.0000 </r>
       <r>    4.3685    1.0000 </r>
       <r>    4.3937    1.0000 </r>
       <r>    4.4031    1.0000 </r>
       <r>    4.4413    1.0000 </r>
       <r>    4.4703    1.0000 </r>
       <r>    4.4930    1.0000 </r>
       <r>    4.6142    1.0000 </r>
       <r>    4.6318    1.0000 </r>
       <r>    4.6664    1.0000 </r>
       <r>    4.6922    1.0000 </r>
       <r>    4.7913    1.0000 </r>
       <r>    4.8177    1.0000 </r>
       <r>    4.8417    1.0000 </r>
       <r>    4.8764    1.0000 </r>
       <r>    4.9731    1.0000 </r>
       <r>    4.9901    1.0000 </r>
       <r>    5.4036    1.0000 </r>
       <r>    5.4154    1.0000 </r>
       <r>    5.5701    1.0000 </r>
       <r>    5.6060    1.0000 </r>
       <r>    5.6418    1.0000 </r>
       <r>    5.6509    1.0000 </r>
       <r>    5.8301    1.0000 </r>
       <r>    5.8599    1.0000 </r>
       <r>    5.9203    1.0000 </r>
       <r>    5.9325    1.0000 </r>
       <r>    6.1603    1.0000 </r>
       <r>    6.2359    1.0000 </r>
       <r>    6.2811    1.0000 </r>
       <r>    6.3033    1.0000 </r>
       <r>    6.3348    1.0000 </r>
       <r>    6.4269    1.0000 </r>
       <r>    6.4776    1.0000 </r>
       <r>    6.5042    1.0000 </r>
       <r>    6.5316    1.0000 </r>
       <r>    6.7570    1.0000 </r>
       <r>    6.7843    1.0000 </r>
       <r>    6.8078    1.0000 </r>
       <r>    6.8239    1.0000 </r>
       <r>    6.8457    1.0000 </r>
       <r>    6.8626    1.0000 </r>
       <r>    6.8848    1.0000 </r>
       <r>    6.9175    1.0000 </r>
       <r>    6.9333    1.0000 </r>
       <r>    6.9620    1.0000 </r>
       <r>    6.9842    1.0000 </r>
       <r>    7.0304    1.0000 </r>
       <r>    7.0427    1.0000 </r>
       <r>    7.1113    1.0000 </r>
       <r>    7.4786    1.0000 </r>
       <r>    7.6827    1.0019 </r>
       <r>    7.7065    1.0031 </r>
       <r>    9.6724   -0.0000 </r>
       <r>   10.1628   -0.0000 </r>
       <r>   10.2302   -0.0000 </r>
       <r>   10.6262   -0.0000 </r>
       <r>   11.9308   -0.0000 </r>
       <r>   11.9997   -0.0000 </r>
       <r>   12.4680   -0.0000 </r>
       <r>   12.5798   -0.0000 </r>
       <r>   12.6047   -0.0000 </r>
       <r>   12.6531   -0.0000 </r>
       <r>   12.6995   -0.0000 </r>
       <r>   12.8735   -0.0000 </r>
       <r>   12.9127   -0.0000 </r>
       <r>   12.9895   -0.0000 </r>
       <r>   13.0096   -0.0000 </r>
       <r>   13.0258   -0.0000 </r>
       <r>   13.0453   -0.0000 </r>
       <r>   13.0703   -0.0000 </r>
       <r>   13.1066   -0.0000 </r>
       <r>   13.1408   -0.0000 </r>
       <r>   13.1730   -0.0000 </r>
       <r>   13.2417   -0.0000 </r>
       <r>   13.4827   -0.0000 </r>
       <r>   13.5824   -0.0000 </r>
       <r>   13.6120   -0.0000 </r>
       <r>   13.6314    0.0000 </r>
       <r>   13.6476    0.0000 </r>
       <r>   13.6738    0.0000 </r>
       <r>   13.7042    0.0000 </r>
       <r>   13.7174    0.0000 </r>
       <r>   13.7378    0.0000 </r>
       <r>   13.9368    0.0000 </r>
       <r>   13.9538    0.0000 </r>
       <r>   13.9788    0.0000 </r>
       <r>   14.0353    0.0000 </r>
       <r>   14.4663    0.0000 </r>
       <r>   14.8049    0.0000 </r>
       <r>   14.8323    0.0000 </r>
       <r>   14.8601    0.0000 </r>
       <r>   14.9056    0.0000 </r>
      </set>
      <set comment="kpoint 4">
       <r>   -7.1703    1.0000 </r>
       <r>   -6.6306    1.0000 </r>
       <r>   -5.6635    1.0000 </r>
       <r>   -5.6290    1.0000 </r>
       <r>   -5.5667    1.0000 </r>
       <r>   -5.5453    1.0000 </r>
       <r>   -5.1564    1.0000 </r>
       <r>   -5.1323    1.0000 </r>
       <r>   -5.0792    1.0000 </r>
       <r>   -5.0633    1.0000 </r>
       <r>   -4.5869    1.0000 </r>
       <r>   -4.3313    1.0000 </r>
       <r>   -4.2499    1.0000 </r>
       <r>   -4.2271    1.0000 </r>
       <r>   -4.1608    1.0000 </r>
       <r>   -4.0095    1.0000 </r>
       <r>   -3.9888    1.0000 </r>
       <r>   -3.9502    1.0000 </r>
       <r>   -3.8858    1.0000 </r>
       <r>   -3.4385    1.0000 </r>
       <r>   -3.4241    1.0000 </r>
       <r>   -3.3610    1.0000 </r>
       <r>   -3.3357    1.0000 </r>
       <r>   -3.2250    1.0000 </r>
       <r>   -2.5630    1.0000 </r>
       <r>   -2.5568    1.0000 </r>
       <r>   -2.5247    1.0000 </r>
       <r>   -2.4622    1.0000 </r>
       <r>   -2.3118    1.0000 </r>
       <r>   -2.2732    1.0000 </r>
       <r>   -2.1735    1.0000 </r>
       <r>   -2.1415    1.0000 </r>
       <r>   -0.0971    1.0000 </r>
       <r>   -0.0328    1.0000 </r>
       <r>   -0.0081    1.0000 </r>
       <r>    0.0188    1.0000 </r>
       <r>    0.3597    1.0000 </r>
       <r>    0.3689    1.0000 </r>
       <r>    0.7166    1.0000 </r>
       <r>    0.7310    1.0000 </r>
       <r>    0.9732    1.0000 </r>
       <r>    0.9970    1.0000 </r>
       <r>    1.0218    1.0000 </r>
       <r>    1.0565    1.0000 </r>
       <r>    1.0812    1.0000 </r>
       <r>    1.1192    1.0000 </r>
       <r>    1.1528    1.0000 </r>
       <r>    1.1839    1.0000 </r>
       <r>    1.2585    1.0000 </r>
       <r>    1.3782    1.0000 </r>
       <r>    1.4001    1.0000 </r>
       <r>    1.4257    1.0000 </r>
       <r>    1.4504    1.0000 </r>
       <r>    2.6643    1.0000 </r>
       <r>    2.6917    1.0000 </r>
       <r>    2.7155    1.0000 </r>
       <r>    2.7374    1.0000 </r>
       <r>    2.8922    1.0000 </r>
       <r>    2.9313    1.0000 </r>
       <r>    2.9446    1.0000 </r>
       <r>    2.9733    1.0000 </r>
       <r>    2.9905    1.0000 </r>
       <r>    3.0077    1.0000 </r>
       <r>    3.0384    1.0000 </r>
       <r>    3.0494    1.0000 </r>
       <r>    3.0666    1.0000 </r>
       <r>    3.5138    1.0000 </r>
       <r>    3.5263    1.0000 </r>
       <r>    3.6464    1.0000 </r>
       <r>    3.6666    1.0000 </r>
       <r>    3.9826    1.0000 </r>
       <r>    3.9961    1.0000 </r>
       <r>    4.0404    1.0000 </r>
       <r>    4.0747    1.0000 </r>
       <r>    4.3219    1.0000 </r>
       <r>    4.3440    1.0000 </r>
       <r>    4.3674    1.0000 </r>
       <r>    4.3838    1.0000 </r>
       <r>    4.4086    1.0000 </r>
       <r>    4.4405    1.0000 </r>
       <r>    4.4517    1.0000 </r>
       <r>    4.5125    1.0000 </r>
       <r>    4.6076    1.0000 </r>
       <r>    4.6353    1.0000 </r>
       <r>    4.6651    1.0000 </r>
       <r>    4.6966    1.0000 </r>
       <r>    4.7569    1.0000 </r>
       <r>    4.8181    1.0000 </r>
       <r>    4.8411    1.0000 </r>
       <r>    4.9005    1.0000 </r>
       <r>    4.9819    1.0000 </r>
       <r>    4.9918    1.0000 </r>
       <r>    5.4024    1.0000 </r>
       <r>    5.4139    1.0000 </r>
       <r>    5.5652    1.0000 </r>
       <r>    5.5954    1.0000 </r>
       <r>    5.6331    1.0000 </r>
       <r>    5.6615    1.0000 </r>
       <r>    5.8463    1.0000 </r>
       <r>    5.8747    1.0000 </r>
       <r>    5.8904    1.0000 </r>
       <r>    5.9386    1.0000 </r>
       <r>    6.1873    1.0000 </r>
       <r>    6.2094    1.0000 </r>
       <r>    6.2705    1.0000 </r>
       <r>    6.2887    1.0000 </r>
       <r>    6.3503    1.0000 </r>
       <r>    6.4430    1.0000 </r>
       <r>    6.4701    1.0000 </r>
       <r>    6.4881    1.0000 </r>
       <r>    6.5407    1.0000 </r>
       <r>    6.7678    1.0000 </r>
       <r>    6.7869    1.0000 </r>
       <r>    6.8039    1.0000 </r>
       <r>    6.8261    1.0000 </r>
       <r>    6.8569    1.0000 </r>
       <r>    6.8686    1.0000 </r>
       <r>    6.8997    1.0000 </r>
       <r>    6.9360    1.0000 </r>
       <r>    6.9450    1.0000 </r>
       <r>    6.9720    1.0000 </r>
       <r>    6.9875    1.0000 </r>
       <r>    7.0101    1.0000 </r>
       <r>    7.0344    1.0000 </r>
       <r>    7.0686    1.0000 </r>
       <r>    7.4794    1.0000 </r>
       <r>    7.6880    1.0022 </r>
       <r>    7.6990    1.0027 </r>
       <r>    9.6722   -0.0000 </r>
       <r>   10.1870   -0.0000 </r>
       <r>   10.2123   -0.0000 </r>
       <r>   10.6209   -0.0000 </r>
       <r>   11.9393   -0.0000 </r>
       <r>   11.9747   -0.0000 </r>
       <r>   12.4695   -0.0000 </r>
       <r>   12.5823   -0.0000 </r>
       <r>   12.6463   -0.0000 </r>
       <r>   12.6598   -0.0000 </r>
       <r>   12.6870   -0.0000 </r>
       <r>   12.9010   -0.0000 </r>
       <r>   12.9424   -0.0000 </r>
       <r>   12.9657   -0.0000 </r>
       <r>   13.0061   -0.0000 </r>
       <r>   13.0287   -0.0000 </r>
       <r>   13.0549   -0.0000 </r>
       <r>   13.0691   -0.0000 </r>
       <r>   13.1015   -0.0000 </r>
       <r>   13.1267   -0.0000 </r>
       <r>   13.1666   -0.0000 </r>
       <r>   13.2110   -0.0000 </r>
       <r>   13.4761   -0.0000 </r>
       <r>   13.5649   -0.0000 </r>
       <r>   13.6005   -0.0000 </r>
       <r>   13.6365    0.0000 </r>
       <r>   13.6627    0.0000 </r>
       <r>   13.6763    0.0000 </r>
       <r>   13.6929    0.0000 </r>
       <r>   13.7168    0.0000 </r>
       <r>   13.7462    0.0000 </r>
       <r>   13.9024    0.0000 </r>
       <r>   13.9753    0.0000 </r>
       <r>   14.0127    0.0000 </r>
       <r>   14.0185    0.0000 </r>
       <r>   14.4671    0.0000 </r>
       <r>   14.8079    0.0000 </r>
       <r>   14.8297    0.0000 </r>
       <r>   14.8401    0.0000 </r>
       <r>   14.8763    0.0000 </r>
      </set>
      <set comment="kpoint 5">
       <r>   -6.9954    1.0000 </r>
       <r>   -6.4661    1.0000 </r>
       <r>   -6.4501    1.0000 </r>
       <r>   -5.9359    1.0000 </r>
       <r>   -5.4696    1.0000 </r>
       <r>   -5.4214    1.0000 </r>
       <r>   -4.9935    1.0000 </r>
       <r>   -4.9802    1.0000 </r>
       <r>   -4.9595    1.0000 </r>
       <r>   -4.9174    1.0000 </r>
       <r>   -4.5549    1.0000 </r>
       <r>   -4.5386    1.0000 </r>
       <r>   -4.4459    1.0000 </r>
       <r>   -4.4246    1.0000 </r>
       <r>   -4.0354    1.0000 </r>
       <r>   -4.0030    1.0000 </r>
       <r>   -3.5727    1.0000 </r>
       <r>   -3.5045    1.0000 </r>
       <r>   -3.4200    1.0000 </r>
       <r>   -3.3852    1.0000 </r>
       <r>   -3.3580    1.0000 </r>
       <r>   -3.3426    1.0000 </r>
       <r>   -3.1531    1.0000 </r>
       <r>   -3.1203    1.0000 </r>
       <r>   -2.8640    1.0000 </r>
       <r>   -2.8337    1.0000 </r>
       <r>   -2.7572    1.0000 </r>
       <r>   -2.6951    1.0000 </r>
       <r>   -2.6708    1.0000 </r>
       <r>   -2.3515    1.0000 </r>
       <r>   -2.3157    1.0000 </r>
       <r>   -2.2098    1.0000 </r>
       <r>   -0.1972    1.0000 </r>
       <r>   -0.1573    1.0000 </r>
       <r>    0.4620    1.0000 </r>
       <r>    0.5115    1.0000 </r>
       <r>    0.5287    1.0000 </r>
       <r>    0.5519    1.0000 </r>
       <r>    0.5801    1.0000 </r>
       <r>    0.6433    1.0000 </r>
       <r>    0.6792    1.0000 </r>
       <r>    0.7755    1.0000 </r>
       <r>    0.8049    1.0000 </r>
       <r>    0.8448    1.0000 </r>
       <r>    0.8548    1.0000 </r>
       <r>    1.0000    1.0000 </r>
       <r>    1.1630    1.0000 </r>
       <r>    1.2228    1.0000 </r>
       <r>    1.2776    1.0000 </r>
       <r>    1.3029    1.0000 </r>
       <r>    1.9721    1.0000 </r>
       <r>    2.0277    1.0000 </r>
       <r>    2.0402    1.0000 </r>
       <r>    2.0852    1.0000 </r>
       <r>    2.1058    1.0000 </r>
       <r>    2.1122    1.0000 </r>
       <r>    2.4097    1.0000 </r>
       <r>    2.5671    1.0000 </r>
       <r>    2.5940    1.0000 </r>
       <r>    2.6679    1.0000 </r>
       <r>    2.7326    1.0000 </r>
       <r>    3.2070    1.0000 </r>
       <r>    3.2258    1.0000 </r>
       <r>    3.2950    1.0000 </r>
       <r>    3.3264    1.0000 </r>
       <r>    3.3410    1.0000 </r>
       <r>    3.4988    1.0000 </r>
       <r>    3.5260    1.0000 </r>
       <r>    3.9013    1.0000 </r>
       <r>    3.9285    1.0000 </r>
       <r>    4.0233    1.0000 </r>
       <r>    4.0382    1.0000 </r>
       <r>    4.0470    1.0000 </r>
       <r>    4.0691    1.0000 </r>
       <r>    4.1069    1.0000 </r>
       <r>    4.3047    1.0000 </r>
       <r>    4.3201    1.0000 </r>
       <r>    4.4706    1.0000 </r>
       <r>    4.4916    1.0000 </r>
       <r>    4.6349    1.0000 </r>
       <r>    4.6859    1.0000 </r>
       <r>    4.8580    1.0000 </r>
       <r>    4.8923    1.0000 </r>
       <r>    4.9007    1.0000 </r>
       <r>    4.9245    1.0000 </r>
       <r>    4.9506    1.0000 </r>
       <r>    4.9721    1.0000 </r>
       <r>    5.0850    1.0000 </r>
       <r>    5.2659    1.0000 </r>
       <r>    5.3005    1.0000 </r>
       <r>    5.3945    1.0000 </r>
       <r>    5.4034    1.0000 </r>
       <r>    5.4331    1.0000 </r>
       <r>    5.4388    1.0000 </r>
       <r>    5.5348    1.0000 </r>
       <r>    5.5620    1.0000 </r>
       <r>    5.5893    1.0000 </r>
       <r>    5.6185    1.0000 </r>
       <r>    5.6465    1.0000 </r>
       <r>    5.6730    1.0000 </r>
       <r>    5.6806    1.0000 </r>
       <r>    5.8410    1.0000 </r>
       <r>    5.9772    1.0000 </r>
       <r>    5.9987    1.0000 </r>
       <r>    6.0294    1.0000 </r>
       <r>    6.0598    1.0000 </r>
       <r>    6.2066    1.0000 </r>
       <r>    6.2283    1.0000 </r>
       <r>    6.2720    1.0000 </r>
       <r>    6.2977    1.0000 </r>
       <r>    6.3953    1.0000 </r>
       <r>    6.4215    1.0000 </r>
       <r>    6.4814    1.0000 </r>
       <r>    6.5121    1.0000 </r>
       <r>    6.5787    1.0000 </r>
       <r>    6.6337    1.0000 </r>
       <r>    6.6593    1.0000 </r>
       <r>    6.7027    1.0000 </r>
       <r>    6.7367    1.0000 </r>
       <r>    6.8539    1.0000 </r>
       <r>    6.8995    1.0000 </r>
       <r>    6.9197    1.0000 </r>
       <r>    6.9469    1.0000 </r>
       <r>    7.3119    1.0000 </r>
       <r>    7.4667    1.0000 </r>
       <r>    7.5528    1.0001 </r>
       <r>    7.6412    1.0008 </r>
       <r>    7.9691    1.0189 </r>
       <r>   10.3913   -0.0000 </r>
       <r>   10.4729   -0.0000 </r>
       <r>   10.5114   -0.0000 </r>
       <r>   11.3241   -0.0000 </r>
       <r>   11.3442   -0.0000 </r>
       <r>   11.6305   -0.0000 </r>
       <r>   11.6654   -0.0000 </r>
       <r>   11.8150   -0.0000 </r>
       <r>   12.1590   -0.0000 </r>
       <r>   12.2093   -0.0000 </r>
       <r>   12.8217   -0.0000 </r>
       <r>   12.8299   -0.0000 </r>
       <r>   12.8440   -0.0000 </r>
       <r>   12.9031   -0.0000 </r>
       <r>   13.0037   -0.0000 </r>
       <r>   13.0787   -0.0000 </r>
       <r>   13.1226   -0.0000 </r>
       <r>   13.1518   -0.0000 </r>
       <r>   13.1972   -0.0000 </r>
       <r>   13.2352   -0.0000 </r>
       <r>   13.2674   -0.0000 </r>
       <r>   13.3166   -0.0000 </r>
       <r>   13.5289   -0.0000 </r>
       <r>   13.5579   -0.0000 </r>
       <r>   13.5872   -0.0000 </r>
       <r>   13.6037   -0.0000 </r>
       <r>   13.7228    0.0000 </r>
       <r>   13.7319    0.0000 </r>
       <r>   13.7669    0.0000 </r>
       <r>   13.8137    0.0000 </r>
       <r>   13.8732    0.0000 </r>
       <r>   13.9079    0.0000 </r>
       <r>   14.0023    0.0000 </r>
       <r>   14.0807    0.0000 </r>
       <r>   14.1135    0.0000 </r>
       <r>   14.6597    0.0000 </r>
       <r>   14.7274    0.0000 </r>
       <r>   14.7431    0.0000 </r>
       <r>   14.9300    0.0000 </r>
       <r>   14.9792    0.0000 </r>
      </set>
      <set comment="kpoint 6">
       <r>   -6.9945    1.0000 </r>
       <r>   -6.4690    1.0000 </r>
       <r>   -6.4494    1.0000 </r>
       <r>   -5.9381    1.0000 </r>
       <r>   -5.4661    1.0000 </r>
       <r>   -5.4101    1.0000 </r>
       <r>   -5.0172    1.0000 </r>
       <r>   -4.9799    1.0000 </r>
       <r>   -4.9604    1.0000 </r>
       <r>   -4.9078    1.0000 </r>
       <r>   -4.5735    1.0000 </r>
       <r>   -4.5193    1.0000 </r>
       <r>   -4.4414    1.0000 </r>
       <r>   -4.4257    1.0000 </r>
       <r>   -4.0419    1.0000 </r>
       <r>   -3.9932    1.0000 </r>
       <r>   -3.5817    1.0000 </r>
       <r>   -3.5039    1.0000 </r>
       <r>   -3.4221    1.0000 </r>
       <r>   -3.3897    1.0000 </r>
       <r>   -3.3629    1.0000 </r>
       <r>   -3.3225    1.0000 </r>
       <r>   -3.1508    1.0000 </r>
       <r>   -3.1270    1.0000 </r>
       <r>   -2.8620    1.0000 </r>
       <r>   -2.8193    1.0000 </r>
       <r>   -2.7424    1.0000 </r>
       <r>   -2.7134    1.0000 </r>
       <r>   -2.6858    1.0000 </r>
       <r>   -2.3645    1.0000 </r>
       <r>   -2.2964    1.0000 </r>
       <r>   -2.2171    1.0000 </r>
       <r>   -0.1831    1.0000 </r>
       <r>   -0.1404    1.0000 </r>
       <r>    0.4444    1.0000 </r>
       <r>    0.4820    1.0000 </r>
       <r>    0.5349    1.0000 </r>
       <r>    0.5501    1.0000 </r>
       <r>    0.5695    1.0000 </r>
       <r>    0.6552    1.0000 </r>
       <r>    0.6965    1.0000 </r>
       <r>    0.7832    1.0000 </r>
       <r>    0.8019    1.0000 </r>
       <r>    0.8352    1.0000 </r>
       <r>    0.8550    1.0000 </r>
       <r>    0.9818    1.0000 </r>
       <r>    1.1699    1.0000 </r>
       <r>    1.2035    1.0000 </r>
       <r>    1.2824    1.0000 </r>
       <r>    1.2962    1.0000 </r>
       <r>    2.0023    1.0000 </r>
       <r>    2.0415    1.0000 </r>
       <r>    2.0530    1.0000 </r>
       <r>    2.0934    1.0000 </r>
       <r>    2.1010    1.0000 </r>
       <r>    2.1275    1.0000 </r>
       <r>    2.4045    1.0000 </r>
       <r>    2.5699    1.0000 </r>
       <r>    2.6248    1.0000 </r>
       <r>    2.6515    1.0000 </r>
       <r>    2.7116    1.0000 </r>
       <r>    3.1889    1.0000 </r>
[...]
      </set>
     </set>
    </set>
   </array>
  </eigenvalues>
  <separator name="orbital magnetization" >
   <v name="MAGDIPOLOUT">      0.00000000      0.00000000      0.00000000</v>
  </separator>
  <dos>
   <i name="efermi">      8.15882554 </i>
   <total>
    <array>
     <dimension dim="1">gridpoints</dimension>
     <dimension dim="2">spin</dimension>
     <field>energy</field>
     <field>total</field>
     <field>integrated</field>
     <set>
      <set comment="spin 1">
       <r>    -9.3475     0.0000     0.0000 </r>
       <r>    -9.2581     0.0000     0.0000 </r>
       <r>    -9.1687     0.0000     0.0000 </r>
       <r>    -9.0793     0.0000     0.0000 </r>
       <r>    -8.9899    -0.0000    -0.0000 </r>
       <r>    -8.9005    -0.0000    -0.0000 </r>
       <r>    -8.8111    -0.0000    -0.0000 </r>
       <r>    -8.7217    -0.0000    -0.0000 </r>
       <r>    -8.6323    -0.0000    -0.0000 </r>
       <r>    -8.5429    -0.0000    -0.0000 </r>
       <r>    -8.4535    -0.0000    -0.0000 </r>
       <r>    -8.3641    -0.0000    -0.0000 </r>
       <r>    -8.2747    -0.0000    -0.0000 </r>
       <r>    -8.1853    -0.0000    -0.0000 </r>
       <r>    -8.0959    -0.0000    -0.0000 </r>
       <r>    -8.0065    -0.0000    -0.0000 </r>
       <r>    -7.9171    -0.0002    -0.0000 </r>
       <r>    -7.8277    -0.0014    -0.0001 </r>
       <r>    -7.7383    -0.0072    -0.0008 </r>
       <r>    -7.6489    -0.0233    -0.0029 </r>
       <r>    -7.5594    -0.0428    -0.0067 </r>
       <r>    -7.4700    -0.0215    -0.0086 </r>
       <r>    -7.3806     0.1473     0.0046 </r>
       <r>    -7.2912     0.6435     0.0621 </r>
       <r>    -7.2018     1.5901     0.2042 </r>
       <r>    -7.1124     2.8748     0.4612 </r>
       <r>    -7.0230     4.1059     0.8283 </r>
       <r>    -6.9336     4.6134     1.2408 </r>
       <r>    -6.8442     4.0564     1.6034 </r>
       <r>    -6.7548     2.9933     1.8710 </r>
       <r>    -6.6654     2.5723     2.1010 </r>
       <r>    -6.5760     3.9772     2.4565 </r>
       <r>    -6.4866     7.1324     3.0942 </r>
       <r>    -6.3972    10.0066     3.9888 </r>
       <r>    -6.3078    10.3916     4.9178 </r>
       <r>    -6.2184     7.7292     5.6088 </r>
       <r>    -6.1290     3.7421     5.9433 </r>
       <r>    -6.0396     1.7493     6.0997 </r>
       <r>    -5.9502     3.3918     6.4029 </r>
       <r>    -5.8608     7.1278     7.0401 </r>
       <r>    -5.7714    10.4893     7.9779 </r>
       <r>    -5.6820    11.9862     9.0495 </r>
       <r>    -5.5926    11.8738    10.1110 </r>
       <r>    -5.5032    11.2243    11.1144 </r>
       <r>    -5.4138     9.8412    11.9942 </r>
       <r>    -5.3244     7.4007    12.6559 </r>
       <r>    -5.2350     5.9048    13.1837 </r>
       <r>    -5.1456     8.1507    13.9124 </r>
       <r>    -5.0562    13.6351    15.1314 </r>
       <r>    -4.9668    17.1502    16.6646 </r>
       <r>    -4.8774    13.9095    17.9081 </r>
       <r>    -4.7880     6.4502    18.4848 </r>
       <r>    -4.6986     2.4166    18.7008 </r>
       <r>    -4.6092     5.5824    19.1999 </r>
       <r>    -4.5198    12.7322    20.3382 </r>
       <r>    -4.4304    18.6419    22.0048 </r>
       <r>    -4.3410    20.4532    23.8333 </r>
       <r>    -4.2516    17.6458    25.4108 </r>
       <r>    -4.1622    13.6193    26.6284 </r>
       <r>    -4.0728    15.1421    27.9821 </r>
       <r>    -3.9834    22.1305    29.9606 </r>
       <r>    -3.8940    24.6209    32.1617 </r>
       <r>    -3.8046    18.1385    33.7833 </r>
       <r>    -3.7152    10.9448    34.7617 </r>
       <r>    -3.6258    10.4952    35.7000 </r>
       <r>    -3.5364    15.3316    37.0706 </r>
       <r>    -3.4470    21.1577    38.9621 </r>
       <r>    -3.3576    23.7663    41.0869 </r>
       <r>    -3.2682    21.1740    42.9798 </r>
       <r>    -3.1788    17.7865    44.5699 </r>
       <r>    -3.0894    17.4418    46.1292 </r>
       <r>    -3.0000    18.4218    47.7761 </r>
       <r>    -2.9106    20.7686    49.6328 </r>
       <r>    -2.8212    25.4916    51.9118 </r>
       <r>    -2.7318    27.7575    54.3933 </r>
       <r>    -2.6424    22.8459    56.4357 </r>
       <r>    -2.5530    14.6864    57.7487 </r>
       <r>    -2.4636    10.5766    58.6943 </r>
       <r>    -2.3742    12.2192    59.7867 </r>
       <r>    -2.2848    15.4404    61.1670 </r>
       <r>    -2.1954    15.2805    62.5331 </r>
       <r>    -2.1060    10.8214    63.5005 </r>
       <r>    -2.0166     5.1305    63.9592 </r>
       <r>    -1.9272     1.2372    64.0698 </r>
       <r>    -1.8378    -0.2393    64.0484 </r>
       <r>    -1.7484    -0.3475    64.0174 </r>
       <r>    -1.6590    -0.1502    64.0039 </r>
       <r>    -1.5696    -0.0375    64.0006 </r>
       <r>    -1.4802    -0.0060    64.0001 </r>
       <r>    -1.3908    -0.0006    64.0000 </r>
       <r>    -1.3014    -0.0000    64.0000 </r>
       <r>    -1.2120    -0.0000    64.0000 </r>
       <r>    -1.1226    -0.0002    64.0000 </r>
       <r>    -1.0332    -0.0019    63.9998 </r>
       <r>    -0.9438    -0.0108    63.9988 </r>
       <r>    -0.8544    -0.0361    63.9956 </r>
       <r>    -0.7650    -0.0516    63.9910 </r>
       <r>    -0.6756     0.0695    63.9972 </r>
       <r>    -0.5862     0.4142    64.0343 </r>
       <r>    -0.4968     0.6893    64.0959 </r>
       <r>    -0.4074     0.7213    64.1604 </r>
       <r>    -0.3180     1.7452    64.3164 </r>
       <r>    -0.2286     5.2331    64.7842 </r>
       <r>    -0.1392     9.5444    65.6375 </r>
       <r>    -0.0498    10.9072    66.6126 </r>
       <r>     0.0396     8.5181    67.3741 </r>
       <r>     0.1290     6.1128    67.9206 </r>
       <r>     0.2184     7.6926    68.6083 </r>
       <r>     0.3078    13.0375    69.7739 </r>
       <r>     0.3972    19.1297    71.4841 </r>
       <r>     0.4866    23.2632    73.5638 </r>
       <r>     0.5760    24.2108    75.7282 </r>
       <r>     0.6654    24.5248    77.9208 </r>
       <r>     0.7548    28.2313    80.4446 </r>
       <r>     0.8442    32.8037    83.3773 </r>
       <r>     0.9336    31.8922    86.2285 </r>
       <r>     1.0230    27.5796    88.6941 </r>
       <r>     1.1124    28.3304    91.2268 </r>
       <r>     1.2018    35.1400    94.3684 </r>
       <r>     1.2912    38.9537    97.8508 </r>
       <r>     1.3806    32.2735   100.7361 </r>
       <r>     1.4700    18.2108   102.3641 </r>
       <r>     1.5594     5.6864   102.8725 </r>
       <r>     1.6488    -0.4281   102.8342 </r>
       <r>     1.7382    -1.2486   102.7226 </r>
       <r>     1.8276     1.2036   102.8302 </r>
       <r>     1.9170     7.5916   103.5089 </r>
       <r>     2.0064    17.9950   105.1177 </r>
       <r>     2.0958    26.1561   107.4560 </r>
       <r>     2.1852    24.4529   109.6421 </r>
       <r>     2.2746    15.0469   110.9873 </r>
       <r>     2.3640     6.9188   111.6059 </r>
       <r>     2.4534     5.0707   112.0592 </r>
       <r>     2.5428     9.2210   112.8835 </r>
       <r>     2.6322    15.7539   114.2919 </r>
       <r>     2.7216    18.2122   115.9201 </r>
       <r>     2.8110    14.6932   117.2337 </r>
       <r>     2.9004    12.2266   118.3267 </r>
       <r>     2.9898    15.7537   119.7351 </r>
       <r>     3.0792    21.5516   121.6619 </r>
       <r>     3.1686    26.6747   124.0466 </r>
       <r>     3.2580    31.5483   126.8670 </r>
       <r>     3.3474    32.9745   129.8149 </r>
       <r>     3.4368    29.4264   132.4456 </r>
       <r>     3.5262    26.0189   134.7717 </r>
       <r>     3.6156    24.0707   136.9237 </r>
       <r>     3.7050    19.6050   138.6764 </r>
       <r>     3.7944    13.7471   139.9053 </r>
       <r>     3.8838    13.4324   141.1062 </r>
       <r>     3.9732    20.5441   142.9429 </r>
       <r>     4.0626    25.9100   145.2592 </r>
       <r>     4.1520    22.1009   147.2350 </r>
       <r>     4.2414    17.1671   148.7698 </r>
       <r>     4.3308    21.7410   150.7134 </r>
       <r>     4.4202    31.4275   153.5231 </r>
       <r>     4.5096    36.7017   156.8042 </r>
       <r>     4.5990    36.2640   160.0462 </r>
       <r>     4.6884    33.4148   163.0335 </r>
       <r>     4.7778    32.5655   165.9449 </r>
       <r>     4.8672    35.5089   169.1194 </r>
       <r>     4.9566    36.8599   172.4146 </r>
       <r>     5.0460    33.3921   175.3999 </r>
       <r>     5.1354    30.0929   178.0902 </r>
       <r>     5.2248    30.1905   180.7893 </r>
       <r>     5.3142    30.9479   183.5560 </r>
       <r>     5.4036    30.6067   186.2923 </r>
       <r>     5.4930    32.5274   189.2002 </r>
       <r>     5.5824    38.7855   192.6676 </r>
       <r>     5.6718    42.8428   196.4978 </r>
       <r>     5.7612    39.7008   200.0471 </r>
       <r>     5.8506    35.7394   203.2422 </r>
       <r>     5.9400    34.9304   206.3649 </r>
       <r>     6.0294    32.1054   209.2352 </r>
       <r>     6.1188    27.2582   211.6721 </r>
       <r>     6.2082    27.4284   214.1242 </r>
       <r>     6.2976    32.5147   217.0310 </r>
       <r>     6.3870    36.1624   220.2639 </r>
       <r>     6.4764    35.8646   223.4702 </r>
       <r>     6.5658    31.7136   226.3054 </r>
       <r>     6.6552    26.7780   228.6994 </r>
       <r>     6.7446    27.1593   231.1274 </r>
       <r>     6.8340    33.9597   234.1634 </r>
       <r>     6.9234    40.3448   237.7703 </r>
       <r>     7.0128    38.0666   241.1734 </r>
       <r>     7.1022    26.9728   243.5848 </r>
       <r>     7.1916    15.7604   244.9938 </r>
       <r>     7.2810    11.5452   246.0259 </r>
       <r>     7.3704    13.6910   247.2499 </r>
       <r>     7.4598    18.0274   248.8616 </r>
       <r>     7.5492    21.0257   250.7413 </r>
       <r>     7.6386    20.3780   252.5631 </r>
       <r>     7.7280    15.6922   253.9659 </r>
       <r>     7.8174     9.2034   254.7887 </r>
       <r>     7.9068     4.8573   255.2230 </r>
       <r>     7.9962     3.8593   255.5680 </r>
       <r>     8.0856     3.3288   255.8656 </r>
       <r>     8.1750     1.6697   256.0149 </r>
       <r>     8.2644     0.2162   256.0342 </r>
       <r>     8.3538    -0.2093   256.0155 </r>
       <r>     8.4432    -0.1302   256.0038 </r>
       <r>     8.5326    -0.0363   256.0006 </r>
       <r>     8.6220    -0.0060   256.0001 </r>
       <r>     8.7114    -0.0008   256.0000 </r>
       <r>     8.8008    -0.0013   255.9999 </r>
       <r>     8.8902    -0.0071   255.9992 </r>
       <r>     8.9796    -0.0237   255.9971 </r>
       <r>     9.0690    -0.0342   255.9941 </r>
       <r>     9.1584     0.0494   255.9985 </r>
       <r>     9.2478     0.3219   256.0272 </r>
       <r>     9.3372     0.6487   256.0852 </r>
       <r>     9.4266     0.7442   256.1518 </r>
       <r>     9.5160     0.7796   256.2215 </r>
       <r>     9.6054     1.2425   256.3326 </r>
       <r>     9.6948     1.7622   256.4901 </r>
       <r>     9.7842     1.4316   256.6181 </r>
       <r>     9.8736     0.4464   256.6580 </r>
       <r>     9.9630    -0.1291   256.6464 </r>
       <r>    10.0524     0.4035   256.6825 </r>
       <r>    10.1418     1.9048   256.8528 </r>
       <r>    10.2312     3.5255   257.1680 </r>
       <r>    10.3206     5.2551   257.6378 </r>
       <r>    10.4100     7.9696   258.3503 </r>
       <r>    10.4994    10.6830   259.3053 </r>
       <r>    10.5888    11.5901   260.3415 </r>
       <r>    10.6782    10.7280   261.3006 </r>
       <r>    10.7676     8.2397   262.0372 </r>
       <r>    10.8570     4.2988   262.4215 </r>
       <r>    10.9464     0.8239   262.4952 </r>
       <r>    11.0358    -0.6929   262.4332 </r>
       <r>    11.1252    -0.3532   262.4017 </r>
       <r>    11.2146     1.8701   262.5688 </r>
       <r>    11.3040     5.3066   263.0433 </r>
       <r>    11.3934     7.8436   263.7445 </r>
       <r>    11.4828     9.3784   264.5829 </r>
       <r>    11.5722    11.3866   265.6009 </r>
       <r>    11.6616    12.9753   266.7609 </r>
       <r>    11.7510    14.1041   268.0218 </r>
       <r>    11.8404    17.0534   269.5464 </r>
       <r>    11.9298    20.5864   271.3868 </r>
       <r>    12.0192    21.2105   273.2830 </r>
       <r>    12.1086    18.7493   274.9592 </r>
       <r>    12.1980    14.3421   276.2414 </r>
       <r>    12.2874     8.3564   276.9885 </r>
       <r>    12.3768     3.4631   277.2981 </r>
       <r>    12.4662     4.1846   277.6722 </r>
       <r>    12.5556    11.3370   278.6857 </r>
       <r>    12.6450    19.8325   280.4587 </r>
       <r>    12.7344    24.9766   282.6916 </r>
       <r>    12.8238    27.8767   285.1838 </r>
       <r>    12.9132    30.2566   287.8888 </r>
       <r>    13.0026    31.8264   290.7341 </r>
       <r>    13.0920    33.2725   293.7086 </r>
       <r>    13.1814    32.9876   296.6577 </r>
       <r>    13.2708    27.0957   299.0801 </r>
       <r>    13.3602    17.7735   300.6690 </r>
       <r>    13.4496    14.5655   301.9712 </r>
       <r>    13.5390    22.3436   303.9687 </r>
       <r>    13.6284    32.8573   306.9062 </r>
       <r>    13.7178    35.3445   310.0660 </r>
       <r>    13.8072    30.2331   312.7688 </r>
       <r>    13.8966    26.3724   315.1265 </r>
       <r>    13.9860    28.6231   317.6854 </r>
       <r>    14.0754    32.1909   320.5633 </r>
       <r>    14.1648    30.0697   323.2515 </r>
       <r>    14.2542    21.5547   325.1785 </r>
       <r>    14.3436    11.1262   326.1732 </r>
       <r>    14.4330     3.7636   326.5097 </r>
       <r>    14.5224     2.6641   326.7478 </r>
       <r>    14.6118     8.4992   327.5077 </r>
       <r>    14.7012    17.4231   329.0653 </r>
       <r>    14.7906    22.1485   331.0454 </r>
       <r>    14.8800    19.8289   332.8181 </r>
       <r>    14.9694    13.7544   334.0477 </r>
       <r>    15.0588     7.1429   334.6863 </r>
       <r>    15.1482     2.0043   334.8655 </r>
       <r>    15.2376     0.2087   334.8842 </r>
       <r>    15.3270     1.7735   335.0427 </r>
       <r>    15.4164     4.1257   335.4115 </r>
       <r>    15.5058     4.3042   335.7963 </r>
       <r>    15.5952     2.2870   336.0008 </r>
       <r>    15.6846     0.4066   336.0371 </r>
       <r>    15.7740    -0.2090   336.0185 </r>
       <r>    15.8634    -0.1530   336.0048 </r>
       <r>    15.9528    -0.0450   336.0008 </r>
       <r>    16.0422    -0.0076   336.0001 </r>
       <r>    16.1316    -0.0008   336.0000 </r>
       <r>    16.2210    -0.0001   336.0000 </r>
       <r>    16.3104    -0.0000   336.0000 </r>
       <r>    16.3998    -0.0000   336.0000 </r>
       <r>    16.4892    -0.0000   336.0000 </r>
       <r>    16.5786    -0.0000   336.0000 </r>
       <r>    16.6680    -0.0000   336.0000 </r>
       <r>    16.7574    -0.0000   336.0000 </r>
       <r>    16.8468     0.0000   336.0000 </r>
       <r>    16.9362     0.0000   336.0000 </r>
       <r>    17.0256     0.0000   336.0000 </r>
       <r>    17.1150     0.0000   336.0000 </r>
       <r>    17.2044     0.0000   336.0000 </r>
       <r>    17.2938     0.0000   336.0000 </r>
       <r>    17.3832     0.0000   336.0000 </r>
       <r>    17.4726     0.0000   336.0000 </r>
      </set>
     </set>
    </array>
   </total>
  </dos>
 </calculation>
 <structure name="finalpos" >
  <crystal>
   <varray name="basis" >
    <v>       8.74331558       0.00000000       0.00000000 </v>
    <v>       0.00000000       8.74331558       0.00000000 </v>
    <v>       0.00000000       0.00000000       8.74331558 </v>
   </varray>
   <i name="volume">    668.38771987 </i>
   <varray name="rec_basis" >
    <v>       0.11437309       0.00000000       0.00000000 </v>
    <v>       0.00000000       0.11437309       0.00000000 </v>
    <v>       0.00000000       0.00000000       0.11437309 </v>
   </varray>
  </crystal>
  <varray name="positions" >
   <v>       0.12121308       0.12192677       0.12574099 </v>
   <v>       0.12544393       0.37286935       0.37707922 </v>
   <v>       0.37366544       0.12412948       0.37220360 </v>
   <v>       0.36756805       0.37834815       0.12741159 </v>
   <v>       0.12780685       0.12360985       0.62736397 </v>
   <v>       0.12430222       0.37354459       0.87883421 </v>
   <v>       0.37435396       0.12542208       0.87341383 </v>
   <v>       0.37140203       0.37314559       0.62541123 </v>
   <v>       0.12656123       0.62375760       0.12182809 </v>
   <v>       0.12727489       0.87373764       0.37387792 </v>
   <v>       0.37806244       0.62278387       0.37682605 </v>
   <v>       0.37658338       0.87723655       0.12625234 </v>
   <v>       0.12421622       0.62477643       0.62435611 </v>
   <v>       0.12927603       0.87570606       0.88036005 </v>
   <v>       0.37463189       0.62813741       0.87351102 </v>
   <v>       0.37714720       0.87518749       0.62694942 </v>
   <v>       0.62513753       0.12545567       0.12719012 </v>
   <v>       0.62293713       0.37262828       0.37362842 </v>
   <v>       0.87452150       0.12301263       0.37699584 </v>
   <v>       0.87885320       0.37766900       0.12704913 </v>
   <v>       0.62449638       0.12573284       0.62547559 </v>
   <v>       0.62235871       0.37962508       0.86990457 </v>
   <v>       0.87789379       0.12734796       0.87841670 </v>
   <v>       0.87411737       0.37299628       0.62223896 </v>
   <v>       0.62590707       0.62698599       0.12302700 </v>
   <v>       0.62562675       0.87254728       0.37686311 </v>
   <v>       0.86986246       0.62518836       0.37585007 </v>
   <v>       0.87526340       0.87799904       0.12298678 </v>
   <v>       0.62305526       0.62604211       0.62473078 </v>
   <v>       0.62496330       0.87413822       0.87502498 </v>
   <v>       0.87737693       0.62265102       0.87520588 </v>
   <v>       0.87160460       0.87775764       0.62561518 </v>
   <v>       0.00101722       0.00065764       0.99570169 </v>
   <v>       0.00512707       0.24920419       0.24778898 </v>
   <v>       0.25174958       0.00259701       0.24865843 </v>
   <v>       0.24878616       0.24658389       0.99984193 </v>
   <v>       0.99917934       0.00196248       0.49835287 </v>
   <v>       0.00201047       0.25212113       0.74856599 </v>
   <v>       0.25019132       0.00300307       0.75182953 </v>
   <v>       0.24849968       0.24867126       0.50329283 </v>
   <v>       0.99883190       0.49904481       0.00171684 </v>
   <v>       0.00133350       0.74645532       0.24663563 </v>
   <v>       0.25513357       0.49929368       0.24783791 </v>
   <v>       0.24955438       0.74515134       0.00584857 </v>
   <v>       0.99977246       0.50042560       0.50158829 </v>
   <v>       0.99917396       0.74960529       0.74991496 </v>
   <v>       0.24664400       0.50057532       0.74991003 </v>
   <v>       0.24771257       0.74947822       0.49792678 </v>
   <v>       0.49823164       0.99839591       0.00151538 </v>
   <v>       0.50188072       0.25042172       0.25004415 </v>
   <v>       0.75318094       0.99754324       0.25115418 </v>
   <v>       0.75416411       0.24940440       0.99603015 </v>
   <v>       0.49991014       0.00013745       0.50089555 </v>
   <v>       0.50026424       0.25152712       0.75195218 </v>
   <v>       0.75450299       0.00225982       0.75418234 </v>
   <v>       0.75146967       0.25425754       0.49999698 </v>
   <v>       0.50110245       0.49880988       0.00311989 </v>
   <v>       0.49813103       0.75186648       0.24889934 </v>
   <v>       0.75285985       0.49744442       0.25002350 </v>
   <v>       0.74808699       0.74486950       0.99562679 </v>
   <v>       0.49812661       0.49779659       0.50276430 </v>
   <v>       0.49929829       0.74686795       0.75191133 </v>
   <v>       0.75195864       0.50285433       0.75053824 </v>
   <v>       0.75146605       0.75089777       0.50160295 </v>
  </varray>
 </structure>
</modeling>
