unknown system                          
           1
     8.743316    0.000000    0.000000
     0.000000    8.743316    0.000000
     0.000000    0.000000    8.743316
   C    Si
    32    32
Direct configuration=     1
   0.12121308  0.12192677  0.12574099
   0.12544393  0.37286935  0.37707922
   0.37366544  0.12412948  0.37220360
   0.36756805  0.37834815  0.12741159
   0.12780685  0.12360985  0.62736397
   0.12430222  0.37354459  0.87883421
   0.37435396  0.12542208  0.87341383
   0.37140203  0.37314559  0.62541123
   0.12656123  0.62375760  0.12182809
   0.12727489  0.87373764  0.37387792
   0.37806244  0.62278387  0.37682605
   0.37658338  0.87723655  0.12625234
   0.12421622  0.62477643  0.62435611
   0.12927603  0.87570606  0.88036005
   0.37463189  0.62813741  0.87351102
   0.37714720  0.87518749  0.62694942
   0.62513753  0.12545567  0.12719012
   0.62293713  0.37262828  0.37362842
   0.87452150  0.12301263  0.37699584
   0.87885320  0.37766900  0.12704913
   0.62449638  0.12573284  0.62547559
   0.62235871  0.37962508  0.86990457
   0.87789379  0.12734796  0.87841670
   0.87411737  0.37299628  0.62223896
   0.62590707  0.62698599  0.12302700
   0.62562675  0.87254728  0.37686311
   0.86986246  0.62518836  0.37585007
   0.87526340  0.87799904  0.12298678
   0.62305526  0.62604211  0.62473078
   0.62496330  0.87413822  0.87502498
   0.87737693  0.62265102  0.87520588
   0.87160460  0.87775764  0.62561518
   0.00101722  0.00065764  0.99570169
   0.00512707  0.24920419  0.24778898
   0.25174958  0.00259701  0.24865843
   0.24878616  0.24658389  0.99984193
   0.99917934  0.00196248  0.49835287
   0.00201047  0.25212113  0.74856599
   0.25019132  0.00300307  0.75182953
   0.24849968  0.24867126  0.50329283
   0.99883190  0.49904481  0.00171684
   0.00133350  0.74645532  0.24663563
   0.25513357  0.49929368  0.24783791
   0.24955438  0.74515134  0.00584857
   0.99977246  0.50042560  0.50158829
   0.99917396  0.74960529  0.74991496
   0.24664400  0.50057532  0.74991003
   0.24771257  0.74947822  0.49792678
   0.49823164  0.99839591  0.00151538
   0.50188072  0.25042172  0.25004415
   0.75318094  0.99754324  0.25115418
   0.75416411  0.24940440  0.99603015
   0.49991014  0.00013745  0.50089555
   0.50026424  0.25152712  0.75195218
   0.75450299  0.00225982  0.75418234
   0.75146967  0.25425754  0.49999698
   0.50110245  0.49880988  0.00311989
   0.49813103  0.75186648  0.24889934
   0.75285985  0.49744442  0.25002350
   0.74808699  0.74486950  0.99562679
   0.49812661  0.49779659  0.50276430
   0.49929829  0.74686795  0.75191133
   0.75195864  0.50285433  0.75053824
   0.75146605  0.75089777  0.50160295
