   8   8   0   0
  0.1044356E+02  0.4371658E-09  0.4371658E-09  0.4371658E-09  0.5000000E-15
  1.000000000000000E-004
  CAR 
 unknown system                          
     18.01288249     -9.32567645  301      8.18406810      1.00000000
     -9.326  0.0000E+00  0.0000E+00
     -9.235  0.0000E+00  0.0000E+00
     -9.143  0.0000E+00  0.0000E+00
     -9.052  0.0000E+00  0.0000E+00
     -8.961 -0.1705E-28 -0.1553E-29
     -8.870 -0.2252E-25 -0.2054E-26
     -8.779 -0.1958E-22 -0.1786E-23
     -8.688 -0.1119E-19 -0.1022E-20
     -8.597 -0.4204E-17 -0.3842E-18
     -8.506 -0.9916E-15 -0.9075E-16
     -8.414 -0.1621E-12 -0.1486E-13
     -8.323 -0.1705E-10 -0.1569E-11
     -8.232 -0.1170E-08 -0.1082E-09
     -8.141 -0.5214E-07 -0.4860E-08
     -8.050 -0.1502E-05 -0.1417E-06
     -7.959 -0.2768E-04 -0.2664E-05
     -7.868 -0.3214E-03 -0.3195E-04
     -7.776 -0.2279E-02 -0.2396E-03
     -7.685 -0.9150E-02 -0.1073E-02
     -7.594 -0.1556E-01 -0.2492E-02
     -7.503  0.1994E-01 -0.6746E-03
     -7.412  0.1454E+00  0.1258E-01
     -7.321  0.2850E+00  0.3855E-01
     -7.230  0.2748E+00  0.6359E-01
     -7.139  0.1259E+00  0.7506E-01
     -7.047 -0.5713E-02  0.7454E-01
     -6.956 -0.8034E-01  0.6722E-01
     -6.865 -0.9423E-01  0.5863E-01
     -6.774  0.2034E+00  0.7717E-01
     -6.683  0.1032E+01  0.1712E+00
     -6.592  0.1780E+01  0.3334E+00
     -6.501  0.1536E+01  0.4733E+00
     -6.410  0.6085E+00  0.5288E+00
     -6.318 -0.5349E-01  0.5239E+00
     -6.227 -0.2679E+00  0.4995E+00
     -6.136 -0.8354E-01  0.4919E+00
     -6.045  0.1012E+01  0.5841E+00
     -5.954  0.2866E+01  0.8453E+00
     -5.863  0.3626E+01  0.1176E+01
     -5.772  0.2308E+01  0.1386E+01
     -5.681  0.5301E+00  0.1434E+01
     -5.589 -0.2611E+00  0.1411E+01
     -5.498 -0.1982E+00  0.1393E+01
     -5.407  0.5472E+00  0.1442E+01
     -5.316  0.1808E+01  0.1607E+01
     -5.225  0.2432E+01  0.1829E+01
     -5.134  0.1648E+01  0.1979E+01
     -5.043  0.4463E+00  0.2020E+01
     -4.952 -0.1284E+00  0.2008E+01
     -4.860 -0.1963E+00  0.1990E+01
     -4.769  0.8319E-03  0.1990E+01
     -4.678  0.6694E+00  0.2051E+01
     -4.587  0.1578E+01  0.2195E+01
     -4.496  0.1734E+01  0.2353E+01
     -4.405  0.8462E+00  0.2430E+01
     -4.314 -0.1713E+00  0.2414E+01
     -4.222 -0.2230E+00  0.2394E+01
     -4.131  0.1799E+01  0.2558E+01
     -4.040  0.5410E+01  0.3051E+01
     -3.949  0.6919E+01  0.3682E+01
     -3.858  0.4799E+01  0.4119E+01
     -3.767  0.3553E+01  0.4443E+01
     -3.676  0.5697E+01  0.4962E+01
     -3.585  0.6889E+01  0.5590E+01
     -3.493  0.4256E+01  0.5977E+01
     -3.402  0.9403E+00  0.6063E+01
     -3.311 -0.3301E+00  0.6033E+01
     -3.220 -0.2863E+00  0.6007E+01
     -3.129 -0.1503E+00  0.5993E+01
     -3.038 -0.1914E+00  0.5976E+01
     -2.947 -0.2375E-01  0.5974E+01
     -2.856  0.1087E+01  0.6073E+01
     -2.764  0.2921E+01  0.6339E+01
     -2.673  0.3557E+01  0.6663E+01
     -2.582  0.2139E+01  0.6858E+01
     -2.491  0.5290E+00  0.6906E+01
     -2.400  0.4458E+00  0.6947E+01
     -2.309  0.1814E+01  0.7112E+01
     -2.218  0.3505E+01  0.7431E+01
     -2.127  0.3819E+01  0.7780E+01
     -2.035  0.2268E+01  0.7986E+01
     -1.944  0.5142E+00  0.8033E+01
     -1.853 -0.1657E+00  0.8018E+01
     -1.762 -0.1457E+00  0.8005E+01
     -1.671 -0.4346E-01  0.8001E+01
     -1.580 -0.7095E-02  0.8000E+01
     -1.489 -0.6986E-03  0.8000E+01
     -1.397 -0.4309E-04  0.8000E+01
     -1.306 -0.1695E-05  0.8000E+01
     -1.215 -0.4301E-07  0.8000E+01
     -1.124 -0.7080E-09  0.8000E+01
     -1.033 -0.7596E-11  0.8000E+01
     -0.942 -0.5713E-13  0.8000E+01
     -0.851 -0.9068E-12  0.8000E+01
     -0.760 -0.1055E-09  0.8000E+01
     -0.668 -0.8069E-08  0.8000E+01
     -0.577 -0.4045E-06  0.8000E+01
     -0.486 -0.1322E-04  0.8000E+01
     -0.395 -0.2795E-03  0.8000E+01
     -0.304 -0.3773E-02  0.8000E+01
     -0.213 -0.3172E-01  0.7997E+01
     -0.122 -0.1575E+00  0.7982E+01
     -0.031 -0.3932E+00  0.7947E+01
      0.061 -0.5871E-01  0.7941E+01
      0.152  0.2372E+01  0.8157E+01
      0.243  0.6474E+01  0.8747E+01
      0.334  0.8045E+01  0.9480E+01
      0.425  0.4970E+01  0.9933E+01
      0.516  0.1153E+01  0.1004E+02
      0.607  0.4428E+00  0.1008E+02
      0.698  0.2182E+01  0.1028E+02
      0.790  0.3594E+01  0.1061E+02
      0.881  0.3767E+01  0.1095E+02
      0.972  0.3809E+01  0.1130E+02
      1.063  0.3426E+01  0.1161E+02
      1.154  0.1876E+01  0.1178E+02
      1.245  0.3405E+00  0.1181E+02
      1.336 -0.1872E+00  0.1179E+02
      1.427 -0.1540E+00  0.1178E+02
      1.519 -0.1302E+00  0.1177E+02
      1.610 -0.1631E+00  0.1175E+02
      1.701  0.1030E+00  0.1176E+02
      1.792  0.1044E+01  0.1186E+02
      1.883  0.2697E+01  0.1210E+02
      1.974  0.5115E+01  0.1257E+02
      2.065  0.7298E+01  0.1323E+02
      2.157  0.6638E+01  0.1384E+02
      2.248  0.3642E+01  0.1417E+02
      2.339  0.2307E+01  0.1438E+02
      2.430  0.3108E+01  0.1466E+02
      2.521  0.2958E+01  0.1493E+02
      2.612  0.1274E+01  0.1505E+02
      2.703 -0.8164E-02  0.1505E+02
      2.794  0.2432E-01  0.1505E+02
      2.886  0.9556E+00  0.1514E+02
      2.977  0.1762E+01  0.1530E+02
      3.068  0.1503E+01  0.1544E+02
      3.159  0.5084E+00  0.1548E+02
      3.250 -0.2359E+00  0.1546E+02
      3.341 -0.1609E+00  0.1545E+02
      3.432  0.1272E+01  0.1556E+02
      3.523  0.3929E+01  0.1592E+02
      3.615  0.5802E+01  0.1645E+02
      3.706  0.5256E+01  0.1693E+02
      3.797  0.4274E+01  0.1732E+02
      3.888  0.5713E+01  0.1784E+02
      3.979  0.7953E+01  0.1856E+02
      4.070  0.7682E+01  0.1926E+02
      4.161  0.5124E+01  0.1973E+02
      4.252  0.2255E+01  0.1993E+02
      4.344  0.3659E+00  0.1997E+02
      4.435 -0.2641E+00  0.1994E+02
      4.526 -0.2576E+00  0.1992E+02
      4.617 -0.9527E-01  0.1991E+02
      4.708  0.4182E+00  0.1995E+02
      4.799  0.1290E+01  0.2007E+02
      4.890  0.1582E+01  0.2021E+02
      4.982  0.8434E+00  0.2029E+02
      5.073  0.8269E+00  0.2036E+02
      5.164  0.3438E+01  0.2068E+02
      5.255  0.6942E+01  0.2131E+02
      5.346  0.7959E+01  0.2204E+02
      5.437  0.7594E+01  0.2273E+02
      5.528  0.9310E+01  0.2358E+02
      5.619  0.1141E+02  0.2462E+02
      5.711  0.9786E+01  0.2551E+02
      5.802  0.6002E+01  0.2605E+02
      5.893  0.3382E+01  0.2636E+02
      5.984  0.1606E+01  0.2651E+02
      6.075  0.1193E+01  0.2662E+02
      6.166  0.4126E+01  0.2699E+02
      6.257  0.8165E+01  0.2774E+02
      6.348  0.8120E+01  0.2848E+02
      6.440  0.3968E+01  0.2884E+02
      6.531  0.4020E+00  0.2888E+02
      6.622 -0.6402E+00  0.2882E+02
      6.713 -0.2103E+00  0.2880E+02
      6.804  0.1174E+01  0.2890E+02
      6.895  0.2920E+01  0.2917E+02
      6.986  0.3753E+01  0.2951E+02
      7.077  0.4098E+01  0.2989E+02
      7.169  0.4785E+01  0.3032E+02
      7.260  0.4219E+01  0.3071E+02
      7.351  0.1897E+01  0.3088E+02
      7.442  0.3423E+00  0.3091E+02
      7.533  0.1204E+01  0.3102E+02
      7.624  0.3089E+01  0.3130E+02
      7.715  0.3384E+01  0.3161E+02
      7.806  0.1817E+01  0.3178E+02
      7.898  0.5516E+00  0.3183E+02
      7.989  0.5485E+00  0.3188E+02
      8.080  0.7880E+00  0.3195E+02
      8.171  0.5310E+00  0.3200E+02
      8.262  0.1259E+00  0.3201E+02
      8.353 -0.3964E-01  0.3200E+02
      8.444 -0.3501E-01  0.3200E+02
      8.536 -0.1036E-01  0.3200E+02
      8.627 -0.1675E-02  0.3200E+02
      8.718 -0.2104E-03  0.3200E+02
      8.809 -0.6184E-03  0.3200E+02
      8.900 -0.4789E-02  0.3200E+02
      8.991 -0.2182E-01  0.3200E+02
      9.082 -0.4688E-01  0.3199E+02
      9.173  0.1828E-01  0.3199E+02
      9.265  0.3409E+00  0.3203E+02
      9.356  0.7931E+00  0.3210E+02
      9.447  0.8775E+00  0.3218E+02
      9.538  0.4834E+00  0.3222E+02
      9.629  0.8418E-01  0.3223E+02
      9.720 -0.4498E-01  0.3223E+02
      9.811 -0.3030E-01  0.3222E+02
      9.902 -0.8049E-02  0.3222E+02
      9.994 -0.1322E-02  0.3222E+02
     10.085 -0.1672E-02  0.3222E+02
     10.176 -0.1165E-01  0.3222E+02
     10.267 -0.4960E-01  0.3222E+02
     10.358 -0.9456E-01  0.3221E+02
     10.449  0.7841E-01  0.3222E+02
     10.540  0.7836E+00  0.3229E+02
     10.631  0.1658E+01  0.3244E+02
     10.723  0.1704E+01  0.3259E+02
     10.814  0.8606E+00  0.3267E+02
     10.905  0.1138E+00  0.3268E+02
     10.996 -0.9365E-01  0.3267E+02
     11.087 -0.5420E-01  0.3267E+02
     11.178 -0.1367E-01  0.3267E+02
     11.269 -0.5312E-02  0.3267E+02
     11.360 -0.2544E-01  0.3266E+02
     11.452 -0.1078E+00  0.3265E+02
     11.543 -0.2179E+00  0.3263E+02
     11.634  0.7518E-01  0.3264E+02
     11.725  0.1456E+01  0.3277E+02
     11.816  0.3637E+01  0.3311E+02
     11.907  0.5172E+01  0.3358E+02
     11.998  0.5063E+01  0.3404E+02
     12.090  0.3441E+01  0.3435E+02
     12.181  0.1568E+01  0.3449E+02
     12.272  0.7534E+00  0.3456E+02
     12.363  0.6190E+00  0.3462E+02
     12.454  0.1526E+00  0.3463E+02
     12.545 -0.5459E+00  0.3458E+02
     12.636  0.4420E-01  0.3459E+02
     12.727  0.4215E+01  0.3497E+02
     12.819  0.1094E+02  0.3597E+02
     12.910  0.1372E+02  0.3722E+02
     13.001  0.9355E+01  0.3807E+02
     13.092  0.3522E+01  0.3839E+02
     13.183  0.1215E+01  0.3850E+02
     13.274  0.9757E+00  0.3859E+02
     13.365  0.9496E+00  0.3868E+02
     13.456  0.1782E+01  0.3884E+02
     13.548  0.3279E+01  0.3914E+02
     13.639  0.3629E+01  0.3947E+02
     13.730  0.2249E+01  0.3968E+02
     13.821  0.5986E+00  0.3973E+02
     13.912 -0.1131E+00  0.3972E+02
     14.003 -0.5862E-01  0.3971E+02
     14.094  0.1885E+00  0.3973E+02
     14.185  0.2932E+00  0.3976E+02
     14.277  0.1930E+00  0.3978E+02
     14.368  0.4754E-01  0.3978E+02
     14.459 -0.1934E-01  0.3978E+02
     14.550 -0.6050E-01  0.3977E+02
     14.641 -0.1955E+00  0.3976E+02
     14.732 -0.3382E+00  0.3972E+02
     14.823  0.3357E+00  0.3976E+02
     14.915  0.2904E+01  0.4002E+02
     15.006  0.6155E+01  0.4058E+02
     15.097  0.6828E+01  0.4120E+02
     15.188  0.4625E+01  0.4162E+02
     15.279  0.2422E+01  0.4184E+02
     15.370  0.1767E+01  0.4201E+02
     15.461  0.3054E+01  0.4228E+02
     15.552  0.6877E+01  0.4291E+02
     15.644  0.1247E+02  0.4405E+02
     15.735  0.1581E+02  0.4549E+02
     15.826  0.1295E+02  0.4667E+02
     15.917  0.7007E+01  0.4731E+02
     16.008  0.3730E+01  0.4765E+02
     16.099  0.2702E+01  0.4789E+02
     16.190  0.1369E+01  0.4802E+02
     16.281  0.1472E+00  0.4803E+02
     16.373 -0.1999E+00  0.4801E+02
     16.464 -0.1109E+00  0.4800E+02
     16.555 -0.2740E-01  0.4800E+02
     16.646 -0.3857E-02  0.4800E+02
     16.737 -0.3319E-03  0.4800E+02
     16.828 -0.1800E-04  0.4800E+02
     16.919 -0.6251E-06  0.4800E+02
     17.010 -0.1402E-07  0.4800E+02
     17.102 -0.2043E-09  0.4800E+02
     17.193 -0.1941E-11  0.4800E+02
     17.284 -0.1300E-13  0.4800E+02
     17.375  0.0000E+00  0.4800E+02
     17.466  0.0000E+00  0.4800E+02
     17.557  0.0000E+00  0.4800E+02
     17.648  0.0000E+00  0.4800E+02
     17.739  0.0000E+00  0.4800E+02
     17.831  0.0000E+00  0.4800E+02
     17.922  0.0000E+00  0.4800E+02
     18.013  0.0000E+00  0.4800E+02
