<?xml version="1.0" encoding="ISO-8859-1"?>
<modeling>
 <generator>
  <i name="program" type="string">vasp </i>
  <i name="version" type="string">5.4.4.18Apr17-6-g9f103f2a35  </i>
  <i name="subversion" type="string">(build Feb 12 2020 19:11:22) complex            parallel </i>
  <i name="platform" type="string">LinuxIFC </i>
  <i name="date" type="string">2020 03 15 </i>
  <i name="time" type="string">12:15:40 </i>
 </generator>
 <incar>
  <i type="string" name="PREC">normal</i>
  <i type="int" name="NELM">    60</i>
  <i type="int" name="IBRION">     1</i>
  <i name="EDIFF">      0.00000001</i>
  <i type="int" name="NSW">     0</i>
  <i type="int" name="ISIF">     3</i>
  <i type="int" name="ISYM">     0</i>
  <i type="logical" name="LWAVE"> F  </i>
  <i type="logical" name="LCHARG"> F  </i>
  <v type="int" name="KPOINT_BSE">    -1     0     0     0</v>
  <i type="int" name="NELM">    60</i>
  <i type="string" name="GGA"> PE</i>
 </incar>
 <structure name="primitive_cell" >
  <crystal>
   <varray name="basis" >
    <v>       4.37165779       0.00000000       0.00000000 </v>
    <v>       0.00000000       4.37165779       0.00000000 </v>
    <v>       0.00000000       0.00000000       4.37165779 </v>
   </varray>
   <i name="volume">     83.54846498 </i>
   <varray name="rec_basis" >
    <v>       0.22874618       0.00000000       0.00000000 </v>
    <v>       0.00000000       0.22874618       0.00000000 </v>
    <v>       0.00000000       0.00000000       0.22874618 </v>
   </varray>
  </crystal>
  <varray name="positions" >
   <v>       0.25000000       0.25000000       0.25000000 </v>
   <v>       0.00000000       0.00000000       0.00000000 </v>
   <v>       0.00000000      -0.50000000      -0.50000000 </v>
   <v>      -0.50000000       0.00000000      -0.50000000 </v>
   <v>      -0.50000000      -0.50000000       0.00000000 </v>
   <v>       0.25000000      -0.25000000      -0.25000000 </v>
   <v>      -0.25000000       0.25000000      -0.25000000 </v>
   <v>      -0.25000000      -0.25000000       0.25000000 </v>
  </varray>
 </structure>
 <varray name="primitive_index" >
  <v type="int" >        1 </v>
  <v type="int" >        5 </v>
  <v type="int" >        6 </v>
  <v type="int" >        7 </v>
  <v type="int" >        8 </v>
  <v type="int" >        2 </v>
  <v type="int" >        3 </v>
  <v type="int" >        4 </v>
 </varray>
 <kpoints>
  <generation param="Monkhorst-Pack">
   <v type="int" name="divisions">       3        3        3 </v>
   <v name="usershift">      0.00000000       0.00000000       0.00000000 </v>
   <v name="genvec1">      0.33333333       0.00000000       0.00000000 </v>
   <v name="genvec2">      0.00000000       0.33333333       0.00000000 </v>
   <v name="genvec3">      0.00000000       0.00000000       0.33333333 </v>
   <v name="shift">      0.00000000       0.00000000       0.00000000 </v>
  </generation>
  <varray name="kpointlist" >
   <v>       0.00000000       0.00000000       0.00000000 </v>
   <v>       0.33333333       0.00000000       0.00000000 </v>
   <v>       0.00000000       0.33333333       0.00000000 </v>
   <v>       0.33333333       0.33333333       0.00000000 </v>
   <v>      -0.33333333       0.33333333       0.00000000 </v>
   <v>       0.00000000       0.00000000       0.33333333 </v>
   <v>       0.33333333       0.00000000       0.33333333 </v>
   <v>      -0.33333333       0.00000000       0.33333333 </v>
   <v>       0.00000000       0.33333333       0.33333333 </v>
   <v>       0.33333333       0.33333333       0.33333333 </v>
   <v>      -0.33333333       0.33333333       0.33333333 </v>
   <v>       0.00000000      -0.33333333       0.33333333 </v>
   <v>       0.33333333      -0.33333333       0.33333333 </v>
   <v>      -0.33333333      -0.33333333       0.33333333 </v>
  </varray>
  <varray name="weights" >
   <v>       0.03703704 </v>
   <v>       0.07407407 </v>
   <v>       0.07407407 </v>
   <v>       0.07407407 </v>
   <v>       0.07407407 </v>
   <v>       0.07407407 </v>
   <v>       0.07407407 </v>
   <v>       0.07407407 </v>
   <v>       0.07407407 </v>
   <v>       0.07407407 </v>
   <v>       0.07407407 </v>
   <v>       0.07407407 </v>
   <v>       0.07407407 </v>
   <v>       0.07407407 </v>
  </varray>
 </kpoints>
 <parameters>
  <separator name="general" >
   <i type="string" name="SYSTEM">unknown system</i>
   <i type="logical" name="LCOMPAT"> F  </i>
  </separator>
  <separator name="electronic" >
   <i type="string" name="PREC">normal</i>
   <i name="ENMAX">    400.00000000</i>
   <i name="ENAUG">    644.87300000</i>
   <i name="EDIFF">      0.00000001</i>
   <i type="int" name="IALGO">    38</i>
   <i type="int" name="IWAVPR">    10</i>
   <i type="int" name="NBANDS">    24</i>
   <i name="NELECT">     32.00000000</i>
   <i type="int" name="TURBO">     0</i>
   <i type="int" name="IRESTART">     0</i>
   <i type="int" name="NREBOOT">     0</i>
   <i type="int" name="NMIN">     0</i>
   <i name="EREF">      0.00000000</i>
   <separator name="electronic smearing" >
    <i type="int" name="ISMEAR">     1</i>
    <i name="SIGMA">      0.20000000</i>
    <i name="KSPACING">      0.50000000</i>
    <i type="logical" name="KGAMMA"> T  </i>
   </separator>
   <separator name="electronic projectors" >
    <i type="logical" name="LREAL"> F  </i>
    <v name="ROPT">      0.00000000      0.00000000</v>
    <i type="int" name="LMAXPAW">  -100</i>
    <i type="int" name="LMAXMIX">     2</i>
    <i type="logical" name="NLSPLINE"> F  </i>
   </separator>
   <separator name="electronic startup" >
    <i type="int" name="ISTART">     0</i>
    <i type="int" name="ICHARG">     2</i>
    <i type="int" name="INIWAV">     1</i>
   </separator>
   <separator name="electronic spin" >
    <i type="int" name="ISPIN">     1</i>
    <i type="logical" name="LNONCOLLINEAR"> F  </i>
    <v name="MAGMOM">      1.00000000      1.00000000      1.00000000      1.00000000      1.00000000      1.00000000      1.00000000      1.00000000</v>
    <i name="NUPDOWN">     -1.00000000</i>
    <i type="logical" name="LSORBIT"> F  </i>
    <v name="SAXIS">      0.00000000      0.00000000      1.00000000</v>
    <i type="logical" name="LSPIRAL"> F  </i>
    <v name="QSPIRAL">      0.00000000      0.00000000      0.00000000</v>
    <i type="logical" name="LZEROZ"> F  </i>
   </separator>
   <separator name="electronic exchange-correlation" >
    <i type="logical" name="LASPH"> F  </i>
    <i type="logical" name="LMETAGGA"> F  </i>
   </separator>
   <separator name="electronic convergence" >
    <i type="int" name="NELM">    60</i>
    <i type="int" name="NELMDL">    -5</i>
    <i type="int" name="NELMIN">     2</i>
    <i name="ENINI">    400.00000000</i>
    <separator name="electronic convergence detail" >
     <i type="logical" name="LDIAG"> T  </i>
     <i type="logical" name="LSUBROT"> F  </i>
     <i name="WEIMIN">      0.00000000</i>
     <i name="EBREAK">      0.00000000</i>
     <i name="DEPER">      0.30000000</i>
     <i type="int" name="NRMM">     4</i>
     <i name="TIME">      0.40000000</i>
    </separator>
   </separator>
   <separator name="electronic mixer" >
    <i name="AMIX">      0.40000000</i>
    <i name="BMIX">      1.00000000</i>
    <i name="AMIN">      0.10000000</i>
    <i name="AMIX_MAG">      1.60000000</i>
    <i name="BMIX_MAG">      1.00000000</i>
    <separator name="electronic mixer details" >
     <i type="int" name="IMIX">     4</i>
     <i type="logical" name="MIXFIRST"> F  </i>
     <i type="int" name="MAXMIX">   -45</i>
     <i name="WC">    100.00000000</i>
     <i type="int" name="INIMIX">     1</i>
     <i type="int" name="MIXPRE">     1</i>
     <i type="int" name="MREMOVE">     5</i>
    </separator>
   </separator>
   <separator name="electronic dipolcorrection" >
    <i type="logical" name="LDIPOL"> F  </i>
    <i type="logical" name="LMONO"> F  </i>
    <i type="int" name="IDIPOL">     0</i>
    <i name="EPSILON">      1.00000000</i>
    <v name="DIPOL">   -100.00000000   -100.00000000   -100.00000000</v>
    <i name="EFIELD">      0.00000000</i>
   </separator>
  </separator>
  <separator name="grids" >
   <i type="int" name="NGX">    24</i>
   <i type="int" name="NGY">    24</i>
   <i type="int" name="NGZ">    24</i>
   <i type="int" name="NGXF">    48</i>
   <i type="int" name="NGYF">    48</i>
   <i type="int" name="NGZF">    48</i>
   <i type="logical" name="ADDGRID"> F  </i>
  </separator>
  <separator name="ionic" >
   <i type="int" name="NSW">     0</i>
   <i type="int" name="IBRION">    -1</i>
   <i type="int" name="MDALGO">     0</i>
   <i type="int" name="ISIF">     3</i>
   <i name="PSTRESS">      0.00000000</i>
   <i name="EDIFFG">      0.00000010</i>
   <i type="int" name="NFREE">     0</i>
   <i name="POTIM">      0.50000000</i>
   <i name="SMASS">     -3.00000000</i>
   <i name="SCALEE">      1.00000000</i>
  </separator>
  <separator name="ionic md" >
   <i name="TEBEG">      0.00010000</i>
   <i name="TEEND">      0.00010000</i>
   <i type="int" name="NBLOCK">     1</i>
   <i type="int" name="KBLOCK">     1</i>
   <i type="int" name="NPACO">   256</i>
   <i name="APACO">     16.00000000</i>
  </separator>
  <separator name="symmetry" >
   <i type="int" name="ISYM">     0</i>
   <i name="SYMPREC">      0.00001000</i>
  </separator>
  <separator name="dos" >
   <i type="int" name="LORBIT">     0</i>
   <v name="RWIGS">     -1.00000000     -1.00000000</v>
   <i type="int" name="NEDOS">   301</i>
   <i name="EMIN">     10.00000000</i>
   <i name="EMAX">    -10.00000000</i>
   <i name="EFERMI">      0.00000000</i>
  </separator>
  <separator name="writing" >
   <i type="int" name="NWRITE">     2</i>
   <i type="logical" name="LWAVE"> F  </i>
   <i type="logical" name="LDOWNSAMPLE"> F  </i>
   <i type="logical" name="LCHARG"> F  </i>
   <i type="logical" name="LPARD"> F  </i>
   <i type="logical" name="LVTOT"> F  </i>
   <i type="logical" name="LVHAR"> F  </i>
   <i type="logical" name="LELF"> F  </i>
   <i type="logical" name="LOPTICS"> F  </i>
   <v name="STM">      0.00000000      0.00000000      0.00000000      0.00000000      0.00000000      0.00000000      0.00000000</v>
  </separator>
  <separator name="performance" >
   <i type="int" name="NPAR">     8</i>
   <i type="int" name="NSIM">     4</i>
   <i type="int" name="NBLK">    -1</i>
   <i type="logical" name="LPLANE"> T  </i>
   <i type="logical" name="LSCALAPACK"> T  </i>
   <i type="logical" name="LSCAAWARE"> F  </i>
   <i type="logical" name="LSCALU"> F  </i>
   <i type="logical" name="LASYNC"> F  </i>
   <i type="logical" name="LORBITALREAL"> F  </i>
  </separator>
  <separator name="miscellaneous" >
   <i type="int" name="IDIOT">     3</i>
   <i type="int" name="ISPECIAL">     0</i>
   <i type="logical" name="LMUSIC"> F  </i>
   <v name="POMASS">     12.01100000     28.08500000</v>
   <v name="DARWINR">      0.00000000      0.00000000</v>
   <v name="DARWINV">      1.00000000      1.00000000</v>
   <i type="logical" name="LCORR"> T  </i>
  </separator>
  <i type="logical" name="GGA_COMPAT"> T  </i>
  <i type="logical" name="LBERRY"> F  </i>
  <i type="int" name="ICORELEVEL">     0</i>
  <i type="logical" name="LDAU"> F  </i>
  <i type="int" name="I_CONSTRAINED_M">     0</i>
  <separator name="electronic exchange-correlation" >
   <i type="string" name="GGA">PE</i>
   <i type="int" name="VOSKOWN">     0</i>
   <i type="logical" name="LHFCALC"> F  </i>
   <i type="string" name="PRECFOCK"></i>
   <i type="logical" name="LSYMGRAD"> F  </i>
   <i type="logical" name="LHFONE"> F  </i>
   <i type="logical" name="LRHFCALC"> F  </i>
   <i type="logical" name="LTHOMAS"> F  </i>
   <i type="logical" name="LMODELHF"> F  </i>
   <i name="ENCUT4O">     -1.00000000</i>
   <i type="int" name="EXXOEP">     0</i>
   <i type="int" name="FOURORBIT">     0</i>
   <i name="AEXX">      0.00000000</i>
   <i name="HFALPHA">      0.00000000</i>
   <i name="MCALPHA">      0.00000000</i>
   <i name="ALDAX">      1.00000000</i>
   <i name="AGGAX">      1.00000000</i>
   <i name="ALDAC">      1.00000000</i>
   <i name="AGGAC">      1.00000000</i>
   <i type="int" name="NKREDX">     1</i>
   <i type="int" name="NKREDY">     1</i>
   <i type="int" name="NKREDZ">     1</i>
   <i type="logical" name="SHIFTRED"> F  </i>
   <i type="logical" name="ODDONLY"> F  </i>
   <i type="logical" name="EVENONLY"> F  </i>
   <i type="int" name="LMAXFOCK">     0</i>
   <i type="int" name="NMAXFOCKAE">     0</i>
   <i type="logical" name="LFOCKAEDFT"> F  </i>
   <i name="HFSCREEN">      0.00000000</i>
   <i name="HFSCREENC">      0.00000000</i>
   <i type="int" name="NBANDSGWLOW">     0</i>
  </separator>
  <separator name="vdW DFT" >
   <i type="logical" name="LUSE_VDW"> F  </i>
   <i name="Zab_VDW">     -0.84910000</i>
   <i name="PARAM1">      0.12340000</i>
   <i name="PARAM2">      1.00000000</i>
   <i name="PARAM3">      0.00000000</i>
  </separator>
  <separator name="model GW" >
   <i type="int" name="MODEL_GW">     0</i>
   <i name="MODEL_EPS0">      6.26613487</i>
   <i name="MODEL_ALPHA">      1.00000000</i>
  </separator>
  <separator name="linear response parameters" >
   <i type="logical" name="LEPSILON"> F  </i>
   <i type="logical" name="LRPA"> F  </i>
   <i type="logical" name="LNABLA"> F  </i>
   <i type="logical" name="LVEL"> F  </i>
   <i type="int" name="KINTER">     0</i>
   <i name="CSHIFT">      0.10000000</i>
   <i name="OMEGAMAX">     -1.00000000</i>
   <i name="DEG_THRESHOLD">      0.00200000</i>
   <i name="RTIME">     -0.10000000</i>
   <i name="WPLASMAI">      0.00000000</i>
   <v name="DFIELD">      0.00000000      0.00000000      0.00000000</v>
   <v name="WPLASMA">      0.00000000      0.00000000      0.00000000      0.00000000      0.00000000      0.00000000      0.00000000      0.00000000      0.00000000</v>
  </separator>
  <separator name="orbital magnetization" >
   <i type="logical" name="NUCIND"> F  </i>
   <v name="MAGPOS">      0.00000000      0.00000000      0.00000000</v>
   <i type="logical" name="LNICSALL"> T  </i>
   <i type="logical" name="ORBITALMAG"> F  </i>
   <i type="logical" name="LMAGBLOCH"> F  </i>
   <i type="logical" name="LCHIMAG"> F  </i>
   <i type="logical" name="LGAUGE"> T  </i>
   <i type="int" name="MAGATOM">     0</i>
   <v name="MAGDIPOL">      0.00000000      0.00000000      0.00000000</v>
   <v name="AVECCONST">      0.00000000      0.00000000      0.00000000</v>
  </separator>
  <separator name="response functions" >
   <i type="logical" name="LADDER"> F  </i>
   <i type="logical" name="LRPAFORCE"> F  </i>
   <i type="logical" name="LFXC"> F  </i>
   <i type="logical" name="LHARTREE"> T  </i>
   <i type="int" name="IBSE">     0</i>
   <v type="int" name="KPOINT">    -1     0     0     0</v>
   <i type="logical" name="LTCTE"> F  </i>
   <i type="logical" name="LTETE"> F  </i>
   <i type="logical" name="LTRIPLET"> F  </i>
   <i type="logical" name="LFXCEPS"> F  </i>
   <i type="logical" name="LFXHEG"> F  </i>
   <i type="int" name="NATURALO">     2</i>
   <i type="logical" name="L2ORDER"> F  </i>
   <i type="logical" name="LMP2LT"> F  </i>
   <i type="logical" name="LUSEW"> F  </i>
   <i name="ENCUTGW">     -2.00000000</i>
   <i name="ENCUTGWSOFT">     -2.00000000</i>
   <i name="ENCUTLF">     -1.00000000</i>
   <i type="int" name="LMAXMP2">    -1</i>
   <i name="SCISSOR">      0.00000000</i>
   <i type="int" name="NOMEGA">     0</i>
   <i type="int" name="NOMEGAR">     0</i>
   <i type="int" name="NBANDSGW">    -1</i>
   <i type="int" name="NBANDSO">    -1</i>
   <i type="int" name="NBANDSV">    -1</i>
   <i type="int" name="NELM">    60</i>
   <i type="int" name="NELMHF">     1</i>
   <i type="int" name="DIM">     3</i>
   <i type="int" name="ANTIRES">     0</i>
   <i name="OMEGAMAX">    -30.00000000</i>
   <i name="OMEGAMIN">    -30.00000000</i>
   <i name="OMEGATL">   -200.00000000</i>
   <i type="int" name="OMEGAGRID">   140</i>
   <i name="CSHIFT">     -0.10000000</i>
   <i type="logical" name="SELFENERGY"> F  </i>
   <i type="logical" name="LSPECTRAL"> F  </i>
   <i type="logical" name="LSPECTRALGW"> F  </i>
   <i type="logical" name="LSINGLES"> F  </i>
   <i type="logical" name="LFERMIGW"> F  </i>
   <i type="logical" name="ODDONLYGW"> F  </i>
   <i type="logical" name="EVENONLYGW"> F  </i>
   <i type="int" name="NKREDLFX">     1</i>
   <i type="int" name="NKREDLFY">     1</i>
   <i type="int" name="NKREDLFZ">     1</i>
   <i type="int" name="MAXMEM">  2800</i>
   <i type="int" name="TELESCOPE">     0</i>
   <i type="int" name="TAUPAR">     1</i>
   <i type="int" name="OMEGAPAR">    -1</i>
   <i name="LAMBDA">      1.00000000</i>
  </separator>
  <separator name="External order field" >
   <i name="OFIELD_KAPPA">      0.00000000</i>
   <v name="OFIELD_K">      0.00000000      0.00000000      0.00000000</v>
   <i name="OFIELD_Q6_NEAR">      0.00000000</i>
   <i name="OFIELD_Q6_FAR">      0.00000000</i>
   <i name="OFIELD_A">      0.00000000</i>
  </separator>
 </parameters>
 <atominfo>
  <atoms>       8 </atoms>
  <types>       2 </types>
  <array name="atoms" >
   <dimension dim="1">ion</dimension>
   <field type="string">element</field>
   <field type="int">atomtype</field>
   <set>
    <rc><c>C </c><c>   1</c></rc>
    <rc><c>C </c><c>   1</c></rc>
    <rc><c>C </c><c>   1</c></rc>
    <rc><c>C </c><c>   1</c></rc>
    <rc><c>Si</c><c>   2</c></rc>
    <rc><c>Si</c><c>   2</c></rc>
    <rc><c>Si</c><c>   2</c></rc>
    <rc><c>Si</c><c>   2</c></rc>
   </set>
  </array>
  <array name="atomtypes" >
   <dimension dim="1">type</dimension>
   <field type="int">atomspertype</field>
   <field type="string">element</field>
   <field>mass</field>
   <field>valence</field>
   <field type="string">pseudopotential</field>
   <set>
    <rc><c>   4</c><c>C </c><c>     12.01100000</c><c>      4.00000000</c><c>  PAW_PBE C 08Apr2002                   </c></rc>
    <rc><c>   4</c><c>Si</c><c>     28.08500000</c><c>      4.00000000</c><c>  PAW_PBE Si 05Jan2001                  </c></rc>
   </set>
  </array>
 </atominfo>
 <structure name="initialpos" >
  <crystal>
   <varray name="basis" >
    <v>       4.37165779       0.00000000       0.00000000 </v>
    <v>       0.00000000       4.37165779       0.00000000 </v>
    <v>       0.00000000       0.00000000       4.37165779 </v>
   </varray>
   <i name="volume">     83.54846498 </i>
   <varray name="rec_basis" >
    <v>       0.22874618       0.00000000       0.00000000 </v>
    <v>       0.00000000       0.22874618       0.00000000 </v>
    <v>       0.00000000       0.00000000       0.22874618 </v>
   </varray>
  </crystal>
  <varray name="positions" >
   <v>       0.25000000       0.25000000       0.25000000 </v>
   <v>       0.25000000       0.75000000       0.75000000 </v>
   <v>       0.75000000       0.25000000       0.75000000 </v>
   <v>       0.75000000       0.75000000       0.25000000 </v>
   <v>       0.00000000       0.00000000       0.00000000 </v>
   <v>       0.00000000       0.50000000       0.50000000 </v>
   <v>       0.50000000       0.00000000       0.50000000 </v>
   <v>       0.50000000       0.50000000       0.00000000 </v>
  </varray>
 </structure>
 <calculation>
  <scstep>
   <time name="dav">    0.27    0.32</time>
   <time name="total">    0.28    0.35</time>
   <energy>
    <i name="alphaZ">     44.35647140 </i>
    <i name="ewald">  -1135.58749980 </i>
    <i name="hartreedc">    -83.77466249 </i>
    <i name="XCdc">     18.22741403 </i>
    <i name="pawpsdc">    786.58338398 </i>
    <i name="pawaedc">   -718.48787991 </i>
    <i name="eentropy">     -0.00402067 </i>
    <i name="bandstr">    152.21944270 </i>
    <i name="atom">   1000.77188040 </i>
    <i name="e_fr_energy">     64.30452964 </i>
    <i name="e_wo_entrp">     64.30855031 </i>
    <i name="e_0_energy">     64.30586987 </i>
   </energy>
  </scstep>
  <scstep>
   <time name="dav">    0.15    0.15</time>
   <time name="total">    0.15    0.15</time>
   <energy>
    <i name="e_fr_energy">    -61.36934895 </i>
    <i name="e_wo_entrp">    -61.37545218 </i>
    <i name="e_0_energy">    -61.37138336 </i>
   </energy>
  </scstep>
  <scstep>
   <time name="dav">    0.15    0.15</time>
   <time name="total">    0.15    0.15</time>
   <energy>
    <i name="e_fr_energy">    -67.41493897 </i>
    <i name="e_wo_entrp">    -67.41692829 </i>
    <i name="e_0_energy">    -67.41560208 </i>
   </energy>
  </scstep>
  <scstep>
   <time name="dav">    0.30    0.30</time>
   <time name="total">    0.30    0.30</time>
   <energy>
    <i name="e_fr_energy">    -67.49092302 </i>
    <i name="e_wo_entrp">    -67.49287988 </i>
    <i name="e_0_energy">    -67.49157531 </i>
   </energy>
  </scstep>
  <scstep>
   <time name="dav">    0.14    0.14</time>
   <time name="total">    0.15    0.15</time>
   <energy>
    <i name="e_fr_energy">    -67.49245195 </i>
    <i name="e_wo_entrp">    -67.49440783 </i>
    <i name="e_0_energy">    -67.49310391 </i>
   </energy>
  </scstep>
  <scstep>
   <time name="dav">    0.14    0.14</time>
   <time name="total">    0.16    0.16</time>
   <energy>
    <i name="e_fr_energy">    -60.40515114 </i>
    <i name="e_wo_entrp">    -60.40658741 </i>
    <i name="e_0_energy">    -60.40562990 </i>
   </energy>
  </scstep>
  <scstep>
   <time name="dav">    0.15    0.15</time>
   <time name="total">    0.16    0.16</time>
   <energy>
    <i name="e_fr_energy">    -60.24171212 </i>
    <i name="e_wo_entrp">    -60.24310935 </i>
    <i name="e_0_energy">    -60.24217786 </i>
   </energy>
  </scstep>
  <scstep>
   <time name="dav">    0.14    0.14</time>
   <time name="total">    0.15    0.15</time>
   <energy>
    <i name="e_fr_energy">    -60.21141823 </i>
    <i name="e_wo_entrp">    -60.21283990 </i>
    <i name="e_0_energy">    -60.21189212 </i>
   </energy>
  </scstep>
  <scstep>
   <time name="dav">    0.14    0.14</time>
   <time name="total">    0.15    0.15</time>
   <energy>
    <i name="e_fr_energy">    -60.20864195 </i>
    <i name="e_wo_entrp">    -60.21005937 </i>
    <i name="e_0_energy">    -60.20911442 </i>
   </energy>
  </scstep>
  <scstep>
   <time name="dav">    0.14    0.14</time>
   <time name="total">    0.15    0.15</time>
   <energy>
    <i name="e_fr_energy">    -60.20913072 </i>
    <i name="e_wo_entrp">    -60.21054656 </i>
    <i name="e_0_energy">    -60.20960267 </i>
   </energy>
  </scstep>
  <scstep>
   <time name="dav">    0.14    0.14</time>
   <time name="total">    0.15    0.15</time>
   <energy>
    <i name="e_fr_energy">    -60.20916884 </i>
    <i name="e_wo_entrp">    -60.21058532 </i>
    <i name="e_0_energy">    -60.20964100 </i>
   </energy>
  </scstep>
  <scstep>
   <time name="dav">    0.14    0.14</time>
   <time name="total">    0.15    0.15</time>
   <energy>
    <i name="e_fr_energy">    -60.20917128 </i>
    <i name="e_wo_entrp">    -60.21058781 </i>
    <i name="e_0_energy">    -60.20964346 </i>
   </energy>
  </scstep>
  <scstep>
   <time name="dav">    0.15    0.15</time>
   <time name="total">    0.16    0.16</time>
   <energy>
    <i name="e_fr_energy">    -60.20917203 </i>
    <i name="e_wo_entrp">    -60.21058858 </i>
    <i name="e_0_energy">    -60.20964421 </i>
   </energy>
  </scstep>
  <scstep>
   <time name="dav">    0.14    0.14</time>
   <time name="total">    0.15    0.15</time>
   <energy>
    <i name="e_fr_energy">    -60.20917233 </i>
    <i name="e_wo_entrp">    -60.21058889 </i>
    <i name="e_0_energy">    -60.20964452 </i>
   </energy>
  </scstep>
  <scstep>
   <time name="dav">    0.12    0.12</time>
   <time name="total">    0.13    0.13</time>
   <energy>
    <i name="e_fr_energy">    -60.20917235 </i>
    <i name="e_wo_entrp">    -60.21058890 </i>
    <i name="e_0_energy">    -60.20964453 </i>
   </energy>
  </scstep>
  <scstep>
   <time name="dav">    0.11    0.11</time>
   <time name="total">    0.12    0.12</time>
   <energy>
    <i name="alphaZ">     44.35647140 </i>
    <i name="ewald">  -1135.58749980 </i>
    <i name="hartreedc">   -128.02853994 </i>
    <i name="XCdc">     22.42477243 </i>
    <i name="pawpsdc">   4122.57646330 </i>
    <i name="pawaedc">  -4055.19059879 </i>
    <i name="eentropy">      0.00141655 </i>
    <i name="bandstr">     68.46646211 </i>
    <i name="atom">   1000.77188040 </i>
    <i name="e_fr_energy">    -60.20917234 </i>
    <i name="e_wo_entrp">    -60.21058889 </i>
    <i name="e_0_energy">    -60.20964453 </i>
   </energy>
  </scstep>
  <structure>
   <crystal>
    <varray name="basis" >
     <v>       4.37165779       0.00000000       0.00000000 </v>
     <v>       0.00000000       4.37165779       0.00000000 </v>
     <v>       0.00000000       0.00000000       4.37165779 </v>
    </varray>
    <i name="volume">     83.54846498 </i>
    <varray name="rec_basis" >
     <v>       0.22874618       0.00000000       0.00000000 </v>
     <v>       0.00000000       0.22874618       0.00000000 </v>
     <v>       0.00000000       0.00000000       0.22874618 </v>
    </varray>
   </crystal>
   <varray name="positions" >
    <v>       0.25000000       0.25000000       0.25000000 </v>
    <v>       0.25000000       0.75000000       0.75000000 </v>
    <v>       0.75000000       0.25000000       0.75000000 </v>
    <v>       0.75000000       0.75000000       0.25000000 </v>
    <v>       0.00000000       0.00000000       0.00000000 </v>
    <v>       0.00000000       0.50000000       0.50000000 </v>
    <v>       0.50000000       0.00000000       0.50000000 </v>
    <v>       0.50000000       0.50000000       0.00000000 </v>
   </varray>
  </structure>
  <varray name="forces" >
   <v>       0.00000375      -0.00000353      -0.00000096 </v>
   <v>       0.00000283       0.00000233      -0.00000160 </v>
   <v>      -0.00000405      -0.00000024       0.00000021 </v>
   <v>      -0.00000344       0.00000039       0.00000024 </v>
   <v>       0.00000139       0.00000091       0.00000158 </v>
   <v>       0.00000081       0.00000003      -0.00000040 </v>
   <v>      -0.00000091       0.00000058      -0.00000041 </v>
   <v>      -0.00000038      -0.00000046       0.00000135 </v>
  </varray>
  <varray name="stress" >
   <v>      -0.17342859      -0.00005016      -0.00003651 </v>
   <v>      -0.00005021      -0.17341987      -0.00002220 </v>
   <v>      -0.00003649      -0.00002213      -0.17341877 </v>
  </varray>
  <energy>
   <i name="e_fr_energy">    -60.20917234 </i>
   <i name="e_wo_entrp">    -60.20964453 </i>
   <i name="e_0_energy">      0.00141655 </i>
  </energy>
  <time name="totalsc">    2.73    2.82</time>
  <eigenvalues>
   <array>
    <dimension dim="1">band</dimension>
    <dimension dim="2">kpoint</dimension>
    <dimension dim="3">spin</dimension>
    <field>eigene</field>
    <field>occ</field>
    <set>
     <set comment="spin 1">
      <set comment="kpoint 1">
       <r>   -7.3257    1.0000 </r>
       <r>   -2.3525    1.0000 </r>
       <r>   -2.3525    1.0000 </r>
       <r>   -2.3525    1.0000 </r>
       <r>    0.2395    1.0000 </r>
       <r>    0.2395    1.0000 </r>
       <r>    0.2395    1.0000 </r>
       <r>    4.8394    1.0000 </r>
       <r>    4.8394    1.0000 </r>
       <r>    4.8394    1.0000 </r>
       <r>    4.8394    1.0000 </r>
       <r>    4.8394    1.0000 </r>
       <r>    4.8394    1.0000 </r>
       <r>    8.0169    0.9986 </r>
       <r>    8.0169    0.9986 </r>
       <r>    8.0169    0.9986 </r>
       <r>    9.3694   -0.0000 </r>
       <r>    9.3694   -0.0000 </r>
       <r>    9.3694   -0.0000 </r>
       <r>   12.2956   -0.0000 </r>
       <r>   12.2956   -0.0000 </r>
       <r>   12.2956   -0.0000 </r>
       <r>   14.1267    0.0000 </r>
       <r>   15.2471    0.0000 </r>
      </set>
      <set comment="kpoint 2">
       <r>   -6.6116    1.0000 </r>
       <r>   -4.5726    1.0000 </r>
       <r>   -2.1870    1.0000 </r>
       <r>   -2.1870    1.0000 </r>
       <r>    0.7396    1.0000 </r>
       <r>    0.7396    1.0000 </r>
       <r>    2.9556    1.0000 </r>
       <r>    3.5340    1.0000 </r>
       <r>    3.5340    1.0000 </r>
       <r>    3.6572    1.0000 </r>
       <r>    3.6572    1.0000 </r>
       <r>    5.4159    1.0000 </r>
       <r>    5.4159    1.0000 </r>
       <r>    6.2081    1.0000 </r>
       <r>    6.9084    1.0000 </r>
       <r>    6.9084    1.0000 </r>
       <r>   10.6352   -0.0000 </r>
       <r>   11.9897   -0.0000 </r>
       <r>   11.9897   -0.0000 </r>
       <r>   13.1839   -0.0000 </r>
       <r>   13.4984   -0.0000 </r>
       <r>   15.0466    0.0000 </r>
       <r>   15.0466    0.0000 </r>
       <r>   15.2669    0.0000 </r>
      </set>
      <set comment="kpoint 3">
       <r>   -6.6116    1.0000 </r>
       <r>   -4.5726    1.0000 </r>
       <r>   -2.1870    1.0000 </r>
       <r>   -2.1870    1.0000 </r>
       <r>    0.7396    1.0000 </r>
       <r>    0.7396    1.0000 </r>
       <r>    2.9556    1.0000 </r>
       <r>    3.5340    1.0000 </r>
       <r>    3.5340    1.0000 </r>
       <r>    3.6572    1.0000 </r>
       <r>    3.6572    1.0000 </r>
       <r>    5.4159    1.0000 </r>
       <r>    5.4159    1.0000 </r>
       <r>    6.2081    1.0000 </r>
       <r>    6.9084    1.0000 </r>
       <r>    6.9084    1.0000 </r>
       <r>   10.6352   -0.0000 </r>
       <r>   11.9897   -0.0000 </r>
       <r>   11.9897   -0.0000 </r>
       <r>   13.1839   -0.0000 </r>
       <r>   13.4984   -0.0000 </r>
       <r>   15.0466    0.0000 </r>
       <r>   15.0466    0.0000 </r>
       <r>   15.2669    0.0000 </r>
      </set>
      <set comment="kpoint 4">
       <r>   -5.9222    1.0000 </r>
       <r>   -4.0043    1.0000 </r>
       <r>   -4.0043    1.0000 </r>
       <r>   -2.7365    1.0000 </r>
       <r>    0.9902    1.0000 </r>
       <r>    2.0691    1.0000 </r>
       <r>    2.0691    1.0000 </r>
       <r>    2.4177    1.0000 </r>
       <r>    3.9325    1.0000 </r>
       <r>    3.9325    1.0000 </r>
       <r>    4.1101    1.0000 </r>
       <r>    5.5880    1.0000 </r>
       <r>    5.6041    1.0000 </r>
       <r>    5.6041    1.0000 </r>
       <r>    5.8470    1.0000 </r>
       <r>    7.6330    1.0003 </r>
       <r>   11.8163   -0.0000 </r>
       <r>   12.8877   -0.0000 </r>
       <r>   12.8877   -0.0000 </r>
       <r>   14.9833    0.0000 </r>
       <r>   15.5059    0.0000 </r>
       <r>   15.7026    0.0000 </r>
       <r>   15.7026    0.0000 </r>
       <r>   16.0129    0.0000 </r>
      </set>
      <set comment="kpoint 5">
       <r>   -5.9222    1.0000 </r>
       <r>   -4.0043    1.0000 </r>
       <r>   -4.0043    1.0000 </r>
       <r>   -2.7365    1.0000 </r>
       <r>    0.9902    1.0000 </r>
       <r>    2.0691    1.0000 </r>
       <r>    2.0691    1.0000 </r>
       <r>    2.4177    1.0000 </r>
       <r>    3.9325    1.0000 </r>
       <r>    3.9325    1.0000 </r>
       <r>    4.1101    1.0000 </r>
       <r>    5.5880    1.0000 </r>
       <r>    5.6041    1.0000 </r>
       <r>    5.6041    1.0000 </r>
       <r>    5.8470    1.0000 </r>
       <r>    7.6330    1.0003 </r>
       <r>   11.8163   -0.0000 </r>
       <r>   12.8877   -0.0000 </r>
       <r>   12.8877   -0.0000 </r>
       <r>   14.9833    0.0000 </r>
       <r>   15.5059    0.0000 </r>
       <r>   15.7026    0.0000 </r>
       <r>   15.7026    0.0000 </r>
       <r>   16.0129    0.0000 </r>
      </set>
      <set comment="kpoint 6">
       <r>   -6.6116    1.0000 </r>
       <r>   -4.5726    1.0000 </r>
       <r>   -2.1870    1.0000 </r>
       <r>   -2.1870    1.0000 </r>
       <r>    0.7396    1.0000 </r>
       <r>    0.7396    1.0000 </r>
       <r>    2.9556    1.0000 </r>
       <r>    3.5340    1.0000 </r>
       <r>    3.5340    1.0000 </r>
       <r>    3.6572    1.0000 </r>
       <r>    3.6572    1.0000 </r>
       <r>    5.4159    1.0000 </r>
       <r>    5.4159    1.0000 </r>
       <r>    6.2081    1.0000 </r>
       <r>    6.9084    1.0000 </r>
       <r>    6.9084    1.0000 </r>
       <r>   10.6352   -0.0000 </r>
       <r>   11.9897   -0.0000 </r>
       <r>   11.9897   -0.0000 </r>
       <r>   13.1839   -0.0000 </r>
       <r>   13.4984   -0.0000 </r>
       <r>   15.0466    0.0000 </r>
       <r>   15.0466    0.0000 </r>
       <r>   15.2669    0.0000 </r>
      </set>
      <set comment="kpoint 7">
       <r>   -5.9222    1.0000 </r>
       <r>   -4.0043    1.0000 </r>
       <r>   -4.0043    1.0000 </r>
       <r>   -2.7365    1.0000 </r>
       <r>    0.9902    1.0000 </r>
       <r>    2.0691    1.0000 </r>
       <r>    2.0691    1.0000 </r>
       <r>    2.4177    1.0000 </r>
       <r>    3.9325    1.0000 </r>
       <r>    3.9325    1.0000 </r>
       <r>    4.1101    1.0000 </r>
       <r>    5.5880    1.0000 </r>
       <r>    5.6041    1.0000 </r>
       <r>    5.6041    1.0000 </r>
       <r>    5.8470    1.0000 </r>
       <r>    7.6330    1.0003 </r>
       <r>   11.8163   -0.0000 </r>
       <r>   12.8877   -0.0000 </r>
       <r>   12.8877   -0.0000 </r>
       <r>   14.9833    0.0000 </r>
       <r>   15.5059    0.0000 </r>
       <r>   15.7026    0.0000 </r>
       <r>   15.7026    0.0000 </r>
       <r>   16.0129    0.0000 </r>
      </set>
      <set comment="kpoint 8">
       <r>   -5.9222    1.0000 </r>
       <r>   -4.0043    1.0000 </r>
       <r>   -4.0043    1.0000 </r>
       <r>   -2.7365    1.0000 </r>
       <r>    0.9902    1.0000 </r>
       <r>    2.0691    1.0000 </r>
       <r>    2.0691    1.0000 </r>
       <r>    2.4177    1.0000 </r>
       <r>    3.9325    1.0000 </r>
       <r>    3.9325    1.0000 </r>
       <r>    4.1101    1.0000 </r>
       <r>    5.5880    1.0000 </r>
       <r>    5.6041    1.0000 </r>
       <r>    5.6041    1.0000 </r>
       <r>    5.8470    1.0000 </r>
       <r>    7.6330    1.0003 </r>
       <r>   11.8163   -0.0000 </r>
       <r>   12.8877   -0.0000 </r>
       <r>   12.8877   -0.0000 </r>
       <r>   14.9833    0.0000 </r>
       <r>   15.5059    0.0000 </r>
       <r>   15.7026    0.0000 </r>
       <r>   15.7026    0.0000 </r>
       <r>   16.0129    0.0000 </r>
      </set>
      <set comment="kpoint 9">
       <r>   -5.9222    1.0000 </r>
       <r>   -4.0043    1.0000 </r>
       <r>   -4.0043    1.0000 </r>
       <r>   -2.7365    1.0000 </r>
       <r>    0.9902    1.0000 </r>
       <r>    2.0691    1.0000 </r>
       <r>    2.0691    1.0000 </r>
       <r>    2.4177    1.0000 </r>
       <r>    3.9325    1.0000 </r>
       <r>    3.9325    1.0000 </r>
       <r>    4.1101    1.0000 </r>
       <r>    5.5880    1.0000 </r>
       <r>    5.6041    1.0000 </r>
       <r>    5.6041    1.0000 </r>
       <r>    5.8470    1.0000 </r>
       <r>    7.6330    1.0003 </r>
       <r>   11.8163   -0.0000 </r>
       <r>   12.8877   -0.0000 </r>
       <r>   12.8877   -0.0000 </r>
       <r>   14.9833    0.0000 </r>
       <r>   15.5059    0.0000 </r>
       <r>   15.7026    0.0000 </r>
       <r>   15.7026    0.0000 </r>
       <r>   16.0129    0.0000 </r>
      </set>
      <set comment="kpoint 10">
       <r>   -5.2767    1.0000 </r>
       <r>   -3.6507    1.0000 </r>
       <r>   -3.6507    1.0000 </r>
       <r>   -3.6507    1.0000 </r>
       <r>    0.2772    1.0000 </r>
       <r>    0.2772    1.0000 </r>
       <r>    0.2772    1.0000 </r>
       <r>    1.8600    1.0000 </r>
       <r>    5.2432    1.0000 </r>
       <r>    5.2432    1.0000 </r>
       <r>    5.2432    1.0000 </r>
       <r>    6.2656    1.0000 </r>
       <r>    6.2656    1.0000 </r>
       <r>    6.2656    1.0000 </r>
       <r>    7.1691    1.0000 </r>
       <r>    7.1691    1.0000 </r>
       <r>   12.8162   -0.0000 </r>
       <r>   12.8162   -0.0000 </r>
       <r>   12.8162   -0.0000 </r>
       <r>   13.6065   -0.0000 </r>
       <r>   15.6021    0.0000 </r>
       <r>   15.6443    0.0000 </r>
       <r>   15.7627    0.0000 </r>
       <r>   15.7627    0.0000 </r>
      </set>
      <set comment="kpoint 11">
       <r>   -5.2767    1.0000 </r>
       <r>   -3.6507    1.0000 </r>
       <r>   -3.6507    1.0000 </r>
       <r>   -3.6507    1.0000 </r>
       <r>    0.2772    1.0000 </r>
       <r>    0.2772    1.0000 </r>
       <r>    0.2772    1.0000 </r>
       <r>    1.8600    1.0000 </r>
       <r>    5.2432    1.0000 </r>
       <r>    5.2432    1.0000 </r>
       <r>    5.2432    1.0000 </r>
       <r>    6.2656    1.0000 </r>
       <r>    6.2656    1.0000 </r>
       <r>    6.2656    1.0000 </r>
       <r>    7.1691    1.0000 </r>
       <r>    7.1691    1.0000 </r>
       <r>   12.8162   -0.0000 </r>
       <r>   12.8162   -0.0000 </r>
       <r>   12.8162   -0.0000 </r>
       <r>   13.6065   -0.0000 </r>
       <r>   15.6021    0.0000 </r>
       <r>   15.7081    0.0000 </r>
       <r>   15.7627    0.0000 </r>
       <r>   15.7627    0.0000 </r>
      </set>
      <set comment="kpoint 12">
       <r>   -5.9222    1.0000 </r>
       <r>   -4.0043    1.0000 </r>
       <r>   -4.0043    1.0000 </r>
       <r>   -2.7365    1.0000 </r>
       <r>    0.9902    1.0000 </r>
       <r>    2.0691    1.0000 </r>
       <r>    2.0691    1.0000 </r>
       <r>    2.4177    1.0000 </r>
       <r>    3.9325    1.0000 </r>
       <r>    3.9325    1.0000 </r>
       <r>    4.1101    1.0000 </r>
       <r>    5.5880    1.0000 </r>
       <r>    5.6041    1.0000 </r>
       <r>    5.6041    1.0000 </r>
       <r>    5.8470    1.0000 </r>
       <r>    7.6330    1.0003 </r>
       <r>   11.8163   -0.0000 </r>
       <r>   12.8877   -0.0000 </r>
       <r>   12.8877   -0.0000 </r>
       <r>   14.9833    0.0000 </r>
       <r>   15.5059    0.0000 </r>
       <r>   15.7026    0.0000 </r>
       <r>   15.7026    0.0000 </r>
       <r>   16.0129    0.0000 </r>
      </set>
      <set comment="kpoint 13">
       <r>   -5.2767    1.0000 </r>
       <r>   -3.6507    1.0000 </r>
       <r>   -3.6507    1.0000 </r>
       <r>   -3.6507    1.0000 </r>
       <r>    0.2772    1.0000 </r>
       <r>    0.2772    1.0000 </r>
       <r>    0.2772    1.0000 </r>
       <r>    1.8600    1.0000 </r>
       <r>    5.2432    1.0000 </r>
       <r>    5.2432    1.0000 </r>
       <r>    5.2432    1.0000 </r>
       <r>    6.2656    1.0000 </r>
       <r>    6.2656    1.0000 </r>
       <r>    6.2656    1.0000 </r>
       <r>    7.1691    1.0000 </r>
       <r>    7.1691    1.0000 </r>
       <r>   12.8162   -0.0000 </r>
       <r>   12.8162   -0.0000 </r>
       <r>   12.8162   -0.0000 </r>
       <r>   13.6065   -0.0000 </r>
       <r>   15.6021    0.0000 </r>
       <r>   15.7059    0.0000 </r>
       <r>   15.7627    0.0000 </r>
       <r>   15.7627    0.0000 </r>
      </set>
      <set comment="kpoint 14">
       <r>   -5.2767    1.0000 </r>
       <r>   -3.6507    1.0000 </r>
       <r>   -3.6507    1.0000 </r>
       <r>   -3.6507    1.0000 </r>
       <r>    0.2772    1.0000 </r>
       <r>    0.2772    1.0000 </r>
       <r>    0.2772    1.0000 </r>
       <r>    1.8600    1.0000 </r>
       <r>    5.2432    1.0000 </r>
       <r>    5.2432    1.0000 </r>
       <r>    5.2432    1.0000 </r>
       <r>    6.2656    1.0000 </r>
       <r>    6.2656    1.0000 </r>
       <r>    6.2656    1.0000 </r>
       <r>    7.1691    1.0000 </r>
       <r>    7.1691    1.0000 </r>
       <r>   12.8162   -0.0000 </r>
       <r>   12.8162   -0.0000 </r>
       <r>   12.8162   -0.0000 </r>
       <r>   13.6065   -0.0000 </r>
       <r>   15.6021    0.0000 </r>
       <r>   15.7348    0.0000 </r>
       <r>   15.7627    0.0000 </r>
       <r>   15.7627    0.0000 </r>
      </set>
     </set>
    </set>
   </array>
  </eigenvalues>
  <separator name="orbital magnetization" >
   <v name="MAGDIPOLOUT">      0.00000000      0.00000000      0.00000000</v>
  </separator>
  <dos>
   <i name="efermi">      8.18406810 </i>
   <total>
    <array>
     <dimension dim="1">gridpoints</dimension>
     <dimension dim="2">spin</dimension>
     <field>energy</field>
     <field>total</field>
     <field>integrated</field>
     <set>
      <set comment="spin 1">
       <r>    -9.3257     0.0000     0.0000 </r>
       <r>    -9.2345     0.0000     0.0000 </r>
       <r>    -9.1434     0.0000     0.0000 </r>
       <r>    -9.0523     0.0000     0.0000 </r>
       <r>    -8.9612    -0.0000    -0.0000 </r>
       <r>    -8.8700    -0.0000    -0.0000 </r>
       <r>    -8.7789    -0.0000    -0.0000 </r>
       <r>    -8.6878    -0.0000    -0.0000 </r>
       <r>    -8.5966    -0.0000    -0.0000 </r>
       <r>    -8.5055    -0.0000    -0.0000 </r>
       <r>    -8.4144    -0.0000    -0.0000 </r>
       <r>    -8.3233    -0.0000    -0.0000 </r>
       <r>    -8.2321    -0.0000    -0.0000 </r>
       <r>    -8.1410    -0.0000    -0.0000 </r>
       <r>    -8.0499    -0.0000    -0.0000 </r>
       <r>    -7.9587    -0.0000    -0.0000 </r>
       <r>    -7.8676    -0.0003    -0.0000 </r>
       <r>    -7.7765    -0.0023    -0.0002 </r>
       <r>    -7.6854    -0.0092    -0.0011 </r>
       <r>    -7.5942    -0.0156    -0.0025 </r>
       <r>    -7.5031     0.0199    -0.0007 </r>
       <r>    -7.4120     0.1454     0.0126 </r>
       <r>    -7.3208     0.2850     0.0385 </r>
       <r>    -7.2297     0.2748     0.0636 </r>
       <r>    -7.1386     0.1259     0.0751 </r>
       <r>    -7.0475    -0.0057     0.0745 </r>
       <r>    -6.9563    -0.0803     0.0672 </r>
       <r>    -6.8652    -0.0942     0.0586 </r>
       <r>    -6.7741     0.2034     0.0772 </r>
       <r>    -6.6829     1.0317     0.1712 </r>
       <r>    -6.5918     1.7797     0.3334 </r>
       <r>    -6.5007     1.5360     0.4733 </r>
       <r>    -6.4096     0.6085     0.5288 </r>
       <r>    -6.3184    -0.0535     0.5239 </r>
       <r>    -6.2273    -0.2679     0.4995 </r>
       <r>    -6.1362    -0.0835     0.4919 </r>
       <r>    -6.0450     1.0121     0.5841 </r>
       <r>    -5.9539     2.8660     0.8453 </r>
       <r>    -5.8628     3.6264     1.1758 </r>
       <r>    -5.7717     2.3085     1.3861 </r>
       <r>    -5.6805     0.5301     1.4344 </r>
       <r>    -5.5894    -0.2611     1.4106 </r>
       <r>    -5.4983    -0.1982     1.3926 </r>
       <r>    -5.4071     0.5472     1.4425 </r>
       <r>    -5.3160     1.8084     1.6072 </r>
       <r>    -5.2249     2.4322     1.8289 </r>
       <r>    -5.1338     1.6481     1.9791 </r>
       <r>    -5.0426     0.4463     2.0197 </r>
       <r>    -4.9515    -0.1284     2.0080 </r>
       <r>    -4.8604    -0.1963     1.9902 </r>
       <r>    -4.7692     0.0008     1.9902 </r>
       <r>    -4.6781     0.6694     2.0512 </r>
       <r>    -4.5870     1.5778     2.1950 </r>
       <r>    -4.4959     1.7335     2.3530 </r>
       <r>    -4.4047     0.8462     2.4301 </r>
       <r>    -4.3136    -0.1713     2.4145 </r>
       <r>    -4.2225    -0.2230     2.3942 </r>
       <r>    -4.1314     1.7986     2.5581 </r>
       <r>    -4.0402     5.4099     3.0511 </r>
       <r>    -3.9491     6.9187     3.6816 </r>
       <r>    -3.8580     4.7989     4.1189 </r>
       <r>    -3.7668     3.5527     4.4426 </r>
       <r>    -3.6757     5.6975     4.9618 </r>
       <r>    -3.5846     6.8889     5.5896 </r>
       <r>    -3.4935     4.2557     5.9774 </r>
       <r>    -3.4023     0.9403     6.0631 </r>
       <r>    -3.3112    -0.3301     6.0330 </r>
       <r>    -3.2201    -0.2863     6.0069 </r>
       <r>    -3.1289    -0.1503     5.9932 </r>
       <r>    -3.0378    -0.1914     5.9758 </r>
       <r>    -2.9467    -0.0238     5.9736 </r>
       <r>    -2.8556     1.0873     6.0727 </r>
       <r>    -2.7644     2.9207     6.3389 </r>
       <r>    -2.6733     3.5567     6.6630 </r>
       <r>    -2.5822     2.1391     6.8579 </r>
       <r>    -2.4910     0.5290     6.9061 </r>
       <r>    -2.3999     0.4458     6.9468 </r>
       <r>    -2.3088     1.8142     7.1121 </r>
       <r>    -2.2177     3.5049     7.4315 </r>
       <r>    -2.1265     3.8193     7.7795 </r>
       <r>    -2.0354     2.2679     7.9862 </r>
       <r>    -1.9443     0.5142     8.0331 </r>
       <r>    -1.8531    -0.1657     8.0180 </r>
       <r>    -1.7620    -0.1457     8.0047 </r>
       <r>    -1.6709    -0.0435     8.0007 </r>
       <r>    -1.5798    -0.0071     8.0001 </r>
       <r>    -1.4886    -0.0007     8.0000 </r>
       <r>    -1.3975    -0.0000     8.0000 </r>
       <r>    -1.3064    -0.0000     8.0000 </r>
       <r>    -1.2152    -0.0000     8.0000 </r>
       <r>    -1.1241    -0.0000     8.0000 </r>
       <r>    -1.0330    -0.0000     8.0000 </r>
       <r>    -0.9419    -0.0000     8.0000 </r>
       <r>    -0.8507    -0.0000     8.0000 </r>
       <r>    -0.7596    -0.0000     8.0000 </r>
       <r>    -0.6685    -0.0000     8.0000 </r>
       <r>    -0.5773    -0.0000     8.0000 </r>
       <r>    -0.4862    -0.0000     8.0000 </r>
       <r>    -0.3951    -0.0003     8.0000 </r>
       <r>    -0.3040    -0.0038     7.9996 </r>
       <r>    -0.2128    -0.0317     7.9967 </r>
       <r>    -0.1217    -0.1575     7.9824 </r>
       <r>    -0.0306    -0.3932     7.9466 </r>
       <r>     0.0606    -0.0587     7.9412 </r>
       <r>     0.1517     2.3719     8.1574 </r>
       <r>     0.2428     6.4739     8.7473 </r>
       <r>     0.3339     8.0452     9.4805 </r>
       <r>     0.4251     4.9700     9.9334 </r>
       <r>     0.5162     1.1534    10.0385 </r>
       <r>     0.6073     0.4428    10.0788 </r>
       <r>     0.6985     2.1824    10.2777 </r>
       <r>     0.7896     3.5936    10.6052 </r>
       <r>     0.8807     3.7670    10.9485 </r>
       <r>     0.9718     3.8092    11.2956 </r>
       <r>     1.0630     3.4265    11.6078 </r>
       <r>     1.1541     1.8761    11.7788 </r>
       <r>     1.2452     0.3405    11.8098 </r>
       <r>     1.3364    -0.1872    11.7928 </r>
       <r>     1.4275    -0.1540    11.7787 </r>
       <r>     1.5186    -0.1302    11.7669 </r>
       <r>     1.6097    -0.1631    11.7520 </r>
       <r>     1.7009     0.1030    11.7614 </r>
       <r>     1.7920     1.0440    11.8565 </r>
       <r>     1.8831     2.6966    12.1023 </r>
       <r>     1.9743     5.1149    12.5684 </r>
       <r>     2.0654     7.2981    13.2335 </r>
       <r>     2.1565     6.6383    13.8384 </r>
       <r>     2.2476     3.6421    14.1703 </r>
       <r>     2.3388     2.3069    14.3805 </r>
       <r>     2.4299     3.1084    14.6638 </r>
       <r>     2.5210     2.9582    14.9334 </r>
       <r>     2.6122     1.2740    15.0495 </r>
       <r>     2.7033    -0.0082    15.0487 </r>
       <r>     2.7944     0.0243    15.0509 </r>
       <r>     2.8855     0.9556    15.1380 </r>
       <r>     2.9767     1.7618    15.2986 </r>
       <r>     3.0678     1.5034    15.4356 </r>
       <r>     3.1589     0.5084    15.4819 </r>
       <r>     3.2501    -0.2359    15.4604 </r>
       <r>     3.3412    -0.1609    15.4457 </r>
       <r>     3.4323     1.2724    15.5617 </r>
       <r>     3.5234     3.9295    15.9198 </r>
       <r>     3.6146     5.8024    16.4485 </r>
       <r>     3.7057     5.2563    16.9275 </r>
       <r>     3.7968     4.2742    17.3170 </r>
       <r>     3.8880     5.7126    17.8376 </r>
       <r>     3.9791     7.9527    18.5623 </r>
       <r>     4.0702     7.6821    19.2624 </r>
       <r>     4.1613     5.1239    19.7293 </r>
       <r>     4.2525     2.2554    19.9349 </r>
       <r>     4.3436     0.3659    19.9682 </r>
       <r>     4.4347    -0.2641    19.9441 </r>
       <r>     4.5259    -0.2576    19.9207 </r>
       <r>     4.6170    -0.0953    19.9120 </r>
       <r>     4.7081     0.4182    19.9501 </r>
       <r>     4.7992     1.2901    20.0677 </r>
       <r>     4.8904     1.5824    20.2119 </r>
       <r>     4.9815     0.8434    20.2887 </r>
       <r>     5.0726     0.8269    20.3641 </r>
       <r>     5.1638     3.4381    20.6774 </r>
       <r>     5.2549     6.9415    21.3100 </r>
       <r>     5.3460     7.9590    22.0353 </r>
       <r>     5.4371     7.5944    22.7273 </r>
       <r>     5.5283     9.3095    23.5757 </r>
       <r>     5.6194    11.4064    24.6151 </r>
       <r>     5.7105     9.7855    25.5069 </r>
       <r>     5.8017     6.0024    26.0539 </r>
       <r>     5.8928     3.3824    26.3621 </r>
       <r>     5.9839     1.6056    26.5084 </r>
       <r>     6.0750     1.1928    26.6171 </r>
       <r>     6.1662     4.1261    26.9931 </r>
       <r>     6.2573     8.1653    27.7372 </r>
       <r>     6.3484     8.1196    28.4771 </r>
       <r>     6.4396     3.9679    28.8387 </r>
       <r>     6.5307     0.4020    28.8754 </r>
       <r>     6.6218    -0.6402    28.8170 </r>
       <r>     6.7129    -0.2103    28.7979 </r>
       <r>     6.8041     1.1735    28.9048 </r>
       <r>     6.8952     2.9197    29.1709 </r>
       <r>     6.9863     3.7527    29.5129 </r>
       <r>     7.0775     4.0976    29.8863 </r>
       <r>     7.1686     4.7851    30.3223 </r>
       <r>     7.2597     4.2189    30.7068 </r>
       <r>     7.3508     1.8968    30.8796 </r>
       <r>     7.4420     0.3423    30.9108 </r>
       <r>     7.5331     1.2044    31.0206 </r>
       <r>     7.6242     3.0888    31.3021 </r>
       <r>     7.7154     3.3836    31.6104 </r>
       <r>     7.8065     1.8172    31.7760 </r>
       <r>     7.8976     0.5516    31.8263 </r>
       <r>     7.9887     0.5485    31.8762 </r>
       <r>     8.0799     0.7880    31.9481 </r>
       <r>     8.1710     0.5310    31.9964 </r>
       <r>     8.2621     0.1259    32.0079 </r>
       <r>     8.3533    -0.0396    32.0043 </r>
       <r>     8.4444    -0.0350    32.0011 </r>
       <r>     8.5355    -0.0104    32.0002 </r>
       <r>     8.6266    -0.0017    32.0000 </r>
       <r>     8.7178    -0.0002    32.0000 </r>
       <r>     8.8089    -0.0006    31.9999 </r>
       <r>     8.9000    -0.0048    31.9995 </r>
       <r>     8.9912    -0.0218    31.9975 </r>
       <r>     9.0823    -0.0469    31.9932 </r>
       <r>     9.1734     0.0183    31.9949 </r>
       <r>     9.2645     0.3409    32.0260 </r>
       <r>     9.3557     0.7931    32.0983 </r>
       <r>     9.4468     0.8775    32.1782 </r>
       <r>     9.5379     0.4834    32.2223 </r>
       <r>     9.6291     0.0842    32.2299 </r>
       <r>     9.7202    -0.0450    32.2258 </r>
       <r>     9.8113    -0.0303    32.2231 </r>
       <r>     9.9024    -0.0080    32.2223 </r>
       <r>     9.9936    -0.0013    32.2222 </r>
       <r>    10.0847    -0.0017    32.2221 </r>
       <r>    10.1758    -0.0116    32.2210 </r>
       <r>    10.2670    -0.0496    32.2165 </r>
       <r>    10.3581    -0.0946    32.2079 </r>
       <r>    10.4492     0.0784    32.2150 </r>
       <r>    10.5403     0.7836    32.2864 </r>
       <r>    10.6315     1.6579    32.4375 </r>
       <r>    10.7226     1.7035    32.5927 </r>
       <r>    10.8137     0.8606    32.6712 </r>
       <r>    10.9049     0.1138    32.6815 </r>
       <r>    10.9960    -0.0937    32.6730 </r>
       <r>    11.0871    -0.0542    32.6681 </r>
       <r>    11.1782    -0.0137    32.6668 </r>
       <r>    11.2694    -0.0053    32.6663 </r>
       <r>    11.3605    -0.0254    32.6640 </r>
       <r>    11.4516    -0.1078    32.6542 </r>
       <r>    11.5428    -0.2179    32.6343 </r>
       <r>    11.6339     0.0752    32.6412 </r>
       <r>    11.7250     1.4561    32.7739 </r>
       <r>    11.8161     3.6372    33.1053 </r>
       <r>    11.9073     5.1719    33.5766 </r>
       <r>    11.9984     5.0625    34.0380 </r>
       <r>    12.0895     3.4406    34.3515 </r>
       <r>    12.1807     1.5681    34.4944 </r>
       <r>    12.2718     0.7534    34.5631 </r>
       <r>    12.3629     0.6190    34.6195 </r>
       <r>    12.4540     0.1526    34.6334 </r>
       <r>    12.5452    -0.5459    34.5836 </r>
       <r>    12.6363     0.0442    34.5877 </r>
       <r>    12.7274     4.2147    34.9717 </r>
       <r>    12.8186    10.9408    35.9688 </r>
       <r>    12.9097    13.7207    37.2191 </r>
       <r>    13.0008     9.3552    38.0716 </r>
       <r>    13.0919     3.5221    38.3926 </r>
       <r>    13.1831     1.2149    38.5033 </r>
       <r>    13.2742     0.9757    38.5922 </r>
       <r>    13.3653     0.9496    38.6788 </r>
       <r>    13.4565     1.7821    38.8412 </r>
       <r>    13.5476     3.2786    39.1400 </r>
       <r>    13.6387     3.6291    39.4707 </r>
       <r>    13.7298     2.2491    39.6756 </r>
       <r>    13.8210     0.5986    39.7302 </r>
       <r>    13.9121    -0.1131    39.7199 </r>
       <r>    14.0032    -0.0586    39.7145 </r>
       <r>    14.0944     0.1885    39.7317 </r>
       <r>    14.1855     0.2932    39.7584 </r>
       <r>    14.2766     0.1930    39.7760 </r>
       <r>    14.3677     0.0475    39.7803 </r>
       <r>    14.4589    -0.0193    39.7786 </r>
       <r>    14.5500    -0.0605    39.7731 </r>
       <r>    14.6411    -0.1955    39.7552 </r>
       <r>    14.7323    -0.3382    39.7244 </r>
       <r>    14.8234     0.3357    39.7550 </r>
       <r>    14.9145     2.9040    40.0197 </r>
       <r>    15.0056     6.1551    40.5806 </r>
       <r>    15.0968     6.8277    41.2028 </r>
       <r>    15.1879     4.6253    41.6243 </r>
       <r>    15.2790     2.4216    41.8449 </r>
       <r>    15.3702     1.7674    42.0060 </r>
       <r>    15.4613     3.0540    42.2843 </r>
       <r>    15.5524     6.8769    42.9110 </r>
       <r>    15.6435    12.4742    44.0477 </r>
       <r>    15.7347    15.8108    45.4886 </r>
       <r>    15.8258    12.9460    46.6683 </r>
       <r>    15.9169     7.0072    47.3069 </r>
       <r>    16.0081     3.7302    47.6468 </r>
       <r>    16.0992     2.7017    47.8930 </r>
       <r>    16.1903     1.3694    48.0178 </r>
       <r>    16.2814     0.1472    48.0312 </r>
       <r>    16.3726    -0.1999    48.0130 </r>
       <r>    16.4637    -0.1109    48.0029 </r>
       <r>    16.5548    -0.0274    48.0004 </r>
       <r>    16.6460    -0.0039    48.0000 </r>
       <r>    16.7371    -0.0003    48.0000 </r>
       <r>    16.8282    -0.0000    48.0000 </r>
       <r>    16.9193    -0.0000    48.0000 </r>
       <r>    17.0105    -0.0000    48.0000 </r>
       <r>    17.1016    -0.0000    48.0000 </r>
       <r>    17.1927    -0.0000    48.0000 </r>
       <r>    17.2839    -0.0000    48.0000 </r>
       <r>    17.3750     0.0000    48.0000 </r>
       <r>    17.4661     0.0000    48.0000 </r>
       <r>    17.5572     0.0000    48.0000 </r>
       <r>    17.6484     0.0000    48.0000 </r>
       <r>    17.7395     0.0000    48.0000 </r>
       <r>    17.8306     0.0000    48.0000 </r>
       <r>    17.9218     0.0000    48.0000 </r>
       <r>    18.0129     0.0000    48.0000 </r>
      </set>
     </set>
    </array>
   </total>
  </dos>
 </calculation>
 <structure name="finalpos" >
  <crystal>
   <varray name="basis" >
    <v>       4.37165779       0.00000000       0.00000000 </v>
    <v>       0.00000000       4.37165779       0.00000000 </v>
    <v>       0.00000000       0.00000000       4.37165779 </v>
   </varray>
   <i name="volume">     83.54846498 </i>
   <varray name="rec_basis" >
    <v>       0.22874618       0.00000000       0.00000000 </v>
    <v>       0.00000000       0.22874618       0.00000000 </v>
    <v>       0.00000000       0.00000000       0.22874618 </v>
   </varray>
  </crystal>
  <varray name="positions" >
   <v>       0.25000000       0.25000000       0.25000000 </v>
   <v>       0.25000000       0.75000000       0.75000000 </v>
   <v>       0.75000000       0.25000000       0.75000000 </v>
   <v>       0.75000000       0.75000000       0.25000000 </v>
   <v>       0.00000000       0.00000000       0.00000000 </v>
   <v>       0.00000000       0.50000000       0.50000000 </v>
   <v>       0.50000000       0.00000000       0.50000000 </v>
   <v>       0.50000000       0.50000000       0.00000000 </v>
  </varray>
 </structure>
</modeling>
