       N       E                     dE             d eps       ncg     rms          rms(c)
DAV:   1     0.669055448953E+03    0.66906E+03   -0.99555E+04  4704   0.111E+03
DAV:   2    -0.462242120462E+03   -0.11313E+04   -0.10705E+04  5800   0.221E+02
DAV:   3    -0.537693329693E+03   -0.75451E+02   -0.74744E+02  5680   0.562E+01
DAV:   4    -0.539371935307E+03   -0.16786E+01   -0.16716E+01  5744   0.907E+00
DAV:   5    -0.539417429456E+03   -0.45494E-01   -0.45420E-01  5552   0.142E+00    0.492E+01
DAV:   6    -0.482725465057E+03    0.56692E+02   -0.19033E+02  5368   0.234E+01    0.218E+01
DAV:   7    -0.481376428832E+03    0.13490E+01   -0.15722E+01  5880   0.703E+00    0.974E+00
DAV:   8    -0.481147559145E+03    0.22887E+00   -0.10167E+00  5392   0.197E+00    0.263E+00
DAV:   9    -0.481131154594E+03    0.16405E-01   -0.14328E-01  5464   0.821E-01    0.439E-01
DAV:  10    -0.481134101876E+03   -0.29473E-02   -0.13872E-02  5768   0.261E-01    0.246E-01
DAV:  11    -0.481135169096E+03   -0.10672E-02   -0.20674E-03  5200   0.114E-01    0.910E-02
DAV:  12    -0.481135229435E+03   -0.60339E-04   -0.34830E-04  6352   0.462E-02    0.419E-02
DAV:  13    -0.481135242522E+03   -0.13087E-04   -0.10021E-04  5104   0.229E-02    0.103E-02
DAV:  14    -0.481135248353E+03   -0.58317E-05   -0.63364E-06  5528   0.578E-03    0.538E-03
DAV:  15    -0.481135250214E+03   -0.18607E-05   -0.22132E-06  5584   0.332E-03    0.394E-03
DAV:  16    -0.481135249926E+03    0.28789E-06   -0.32671E-07  5840   0.152E-03    0.129E-03
DAV:  17    -0.481135250320E+03   -0.39445E-06   -0.11655E-07  5240   0.744E-04    0.741E-04
DAV:  18    -0.481135250351E+03   -0.30119E-07   -0.68469E-09  2784   0.230E-04    0.348E-04
DAV:  19    -0.481135250316E+03    0.34153E-07   -0.78275E-09  2720   0.191E-04    0.122E-04
DAV:  20    -0.481135250321E+03   -0.47075E-08   -0.12127E-09  2712   0.101E-04
   1 F= -.48113525E+03 E0= -.48113855E+03  d E =0.990640E-02
