<?xml version="1.0" encoding="ISO-8859-1"?>
<modeling>
 <generator>
  <i name="program" type="string">vasp </i>
  <i name="version" type="string">6.2.1  </i>
  <i name="subversion" type="string">16May21 (build Jun 06 2020 10:27:25) complex                          parallel </i>
  <i name="platform" type="string">LinuxIFC </i>
  <i name="date" type="string">2024 01 12 </i>
  <i name="time" type="string">18:05:54 </i>
 </generator>
 <incar>
  <i type="int" name="NELM">    60</i>
  <i type="int" name="IBRION">     1</i>
  <i name="EDIFF">      0.00000001</i>
  <i type="int" name="NSW">     0</i>
  <i type="int" name="ISIF">     3</i>
  <i type="int" name="ISYM">     0</i>
  <i type="logical" name="LWAVE"> F  </i>
  <i type="logical" name="LCHARG"> F  </i>
  <i type="string" name="GGA">PE</i>
 </incar>
 <primitive_cell>
  <structure name="primitive_cell" >
   <crystal>
    <varray name="basis" >
     <v>       8.74331558       0.00000000       0.00000000 </v>
     <v>       0.00000000       8.74331558       0.00000000 </v>
     <v>       0.00000000       0.00000000       8.74331558 </v>
    </varray>
    <i name="volume">    668.38771987 </i>
    <varray name="rec_basis" >
     <v>       0.11437309       0.00000000       0.00000000 </v>
     <v>       0.00000000       0.11437309       0.00000000 </v>
     <v>       0.00000000       0.00000000       0.11437309 </v>
    </varray>
   </crystal>
   <varray name="positions" >
    <v>       0.12186308       0.12589107       0.12199427 </v>
    <v>       0.12811835       0.37681886       0.37592970 </v>
    <v>       0.37907525       0.12652063       0.37857251 </v>
    <v>       0.37473830       0.37374704       0.12489188 </v>
    <v>       0.12555771       0.12052329       0.62901025 </v>
    <v>       0.12473555       0.37622498       0.87361731 </v>
    <v>       0.37488997       0.12182592       0.87546763 </v>
    <v>       0.37482393       0.37232028       0.62455181 </v>
    <v>       0.12423673       0.62534697       0.12517231 </v>
    <v>       0.12557272       0.87276648       0.37978642 </v>
    <v>       0.37242093       0.62094309       0.37172335 </v>
    <v>       0.37519652       0.87662772       0.12299885 </v>
    <v>       0.12566376       0.62462395       0.62644001 </v>
    <v>       0.12514528       0.87755609       0.87368460 </v>
    <v>       0.37699578       0.62051597       0.87254566 </v>
    <v>       0.37935823       0.87986651       0.62423788 </v>
    <v>       0.62257278       0.12204321       0.12497383 </v>
    <v>       0.62441215       0.37588908       0.37612809 </v>
    <v>       0.87753422       0.12253768       0.37641957 </v>
    <v>       0.87221909       0.37360851       0.12547575 </v>
    <v>       0.62319679       0.12351130       0.62466932 </v>
    <v>       0.62285566       0.37317703       0.87293486 </v>
    <v>       0.87548845       0.12440966       0.87496885 </v>
    <v>       0.87555584       0.37907297       0.62577683 </v>
    <v>       0.62639269       0.62408292       0.12396517 </v>
    <v>       0.62484281       0.87735076       0.37716851 </v>
    <v>       0.87818267       0.62433973       0.37522886 </v>
    <v>       0.87574770       0.87347048       0.12424548 </v>
    <v>       0.62573832       0.62119184       0.62534478 </v>
    <v>       0.62599846       0.87506826       0.87558110 </v>
    <v>       0.87744901       0.62657753       0.87772860 </v>
    <v>       0.87520285       0.87741833       0.62405629 </v>
    <v>       0.00036419       0.99978957       0.00364370 </v>
    <v>       0.99585862       0.25061878       0.25166278 </v>
    <v>       0.25068557       0.99850902       0.25208200 </v>
    <v>       0.24923629       0.24744775       0.00444624 </v>
    <v>       0.00425886       0.00449045       0.49872213 </v>
    <v>       0.99609254       0.24772244       0.74813729 </v>
    <v>       0.24755038       0.99778036       0.74764236 </v>
    <v>       0.24860522       0.25057985       0.50071295 </v>
    <v>       0.00375747       0.49819161       0.00322518 </v>
    <v>       0.00145566       0.75094042       0.25194886 </v>
    <v>       0.24979124       0.50132039       0.25246879 </v>
    <v>       0.24917020       0.74804775       0.99832829 </v>
    <v>       0.99840763       0.49902713       0.49716192 </v>
    <v>       0.99673085       0.74879788       0.74962815 </v>
    <v>       0.24838175       0.50111331       0.74922400 </v>
    <v>       0.24887371       0.74940979       0.49641136 </v>
    <v>       0.50304117       0.99933296       0.99693275 </v>
    <v>       0.49915701       0.25544107       0.24947509 </v>
    <v>       0.74715802       0.99565906       0.25298192 </v>
    <v>       0.75080363       0.25176966       0.00271213 </v>
    <v>       0.49564308       0.99673971       0.49994820 </v>
    <v>       0.49814349       0.25163427       0.74552313 </v>
    <v>       0.74732765       0.99962854       0.75004386 </v>
    <v>       0.74981293       0.25093876       0.49935469 </v>
    <v>       0.49716504       0.50106199       0.99745656 </v>
    <v>       0.50231351       0.74890300       0.25100834 </v>
    <v>       0.74624038       0.49981091       0.25046990 </v>
    <v>       0.74840987       0.74879251       0.99985470 </v>
    <v>       0.50099932       0.50015131       0.50278203 </v>
    <v>       0.49942567       0.74562010       0.75255364 </v>
    <v>       0.75204972       0.50024433       0.75239339 </v>
    <v>       0.74717213       0.74985223       0.50181123 </v>
   </varray>
  </structure>
  <varray name="primitive_index" >
   <v type="int" >        1 </v>
   <v type="int" >        2 </v>
   <v type="int" >        3 </v>
   <v type="int" >        4 </v>
   <v type="int" >        5 </v>
   <v type="int" >        6 </v>
   <v type="int" >        7 </v>
   <v type="int" >        8 </v>
   <v type="int" >        9 </v>
   <v type="int" >       10 </v>
   <v type="int" >       11 </v>
   <v type="int" >       12 </v>
   <v type="int" >       13 </v>
   <v type="int" >       14 </v>
   <v type="int" >       15 </v>
   <v type="int" >       16 </v>
   <v type="int" >       17 </v>
   <v type="int" >       18 </v>
   <v type="int" >       19 </v>
   <v type="int" >       20 </v>
   <v type="int" >       21 </v>
   <v type="int" >       22 </v>
   <v type="int" >       23 </v>
   <v type="int" >       24 </v>
   <v type="int" >       25 </v>
   <v type="int" >       26 </v>
   <v type="int" >       27 </v>
   <v type="int" >       28 </v>
   <v type="int" >       29 </v>
   <v type="int" >       30 </v>
   <v type="int" >       31 </v>
   <v type="int" >       32 </v>
   <v type="int" >       33 </v>
   <v type="int" >       34 </v>
   <v type="int" >       35 </v>
   <v type="int" >       36 </v>
   <v type="int" >       37 </v>
   <v type="int" >       38 </v>
   <v type="int" >       39 </v>
   <v type="int" >       40 </v>
   <v type="int" >       41 </v>
   <v type="int" >       42 </v>
   <v type="int" >       43 </v>
   <v type="int" >       44 </v>
   <v type="int" >       45 </v>
   <v type="int" >       46 </v>
   <v type="int" >       47 </v>
   <v type="int" >       48 </v>
   <v type="int" >       49 </v>
   <v type="int" >       50 </v>
   <v type="int" >       51 </v>
   <v type="int" >       52 </v>
   <v type="int" >       53 </v>
   <v type="int" >       54 </v>
   <v type="int" >       55 </v>
   <v type="int" >       56 </v>
   <v type="int" >       57 </v>
   <v type="int" >       58 </v>
   <v type="int" >       59 </v>
   <v type="int" >       60 </v>
   <v type="int" >       61 </v>
   <v type="int" >       62 </v>
   <v type="int" >       63 </v>
   <v type="int" >       64 </v>
  </varray>
 </primitive_cell>
 <kpoints>
  <generation param="Monkhorst-Pack">
   <v type="int" name="divisions">       3        3        3 </v>
   <v name="usershift">      0.00000000       0.00000000       0.00000000 </v>
   <v name="genvec1">      0.33333333       0.00000000       0.00000000 </v>
   <v name="genvec2">      0.00000000       0.33333333       0.00000000 </v>
   <v name="genvec3">      0.00000000       0.00000000       0.33333333 </v>
   <v name="shift">      0.00000000       0.00000000       0.00000000 </v>
  </generation>
  <varray name="kpointlist" >
   <v>       0.00000000       0.00000000       0.00000000 </v>
   <v>       0.33333333       0.00000000       0.00000000 </v>
   <v>       0.00000000       0.33333333       0.00000000 </v>
   <v>       0.00000000       0.00000000       0.33333333 </v>
   <v>       0.33333333       0.33333333       0.00000000 </v>
   <v>       0.00000000       0.33333333       0.33333333 </v>
   <v>       0.33333333       0.00000000       0.33333333 </v>
   <v>      -0.33333333       0.33333333       0.00000000 </v>
   <v>      -0.33333333       0.00000000       0.33333333 </v>
   <v>       0.00000000      -0.33333333       0.33333333 </v>
   <v>       0.33333333       0.33333333       0.33333333 </v>
   <v>      -0.33333333       0.33333333       0.33333333 </v>
   <v>      -0.33333333      -0.33333333       0.33333333 </v>
   <v>       0.33333333      -0.33333333       0.33333333 </v>
  </varray>
  <varray name="weights" >
   <v>       0.03703704 </v>
   <v>       0.07407407 </v>
   <v>       0.07407407 </v>
   <v>       0.07407407 </v>
   <v>       0.07407407 </v>
   <v>       0.07407407 </v>
   <v>       0.07407407 </v>
   <v>       0.07407407 </v>
   <v>       0.07407407 </v>
   <v>       0.07407407 </v>
   <v>       0.07407407 </v>
   <v>       0.07407407 </v>
   <v>       0.07407407 </v>
   <v>       0.07407407 </v>
  </varray>
 </kpoints>
 <parameters>
  <separator name="general" >
   <i type="string" name="SYSTEM">unknown system</i>
   <i type="logical" name="LCOMPAT"> F  </i>
  </separator>
  <separator name="electronic" >
   <i type="string" name="PREC">normal</i>
   <i name="ENMAX">    400.00000000</i>
   <i name="ENAUG">    644.87300000</i>
   <i name="EDIFF">      0.00000001</i>
   <i type="int" name="IALGO">    38</i>
   <i type="int" name="IWAVPR">    10</i>
   <i type="int" name="NBANDS">   168</i>
   <i type="int" name="NBANDSLOW">    -1</i>
   <i type="int" name="NBANDSHIGH">    -1</i>
   <i name="NELECT">    256.00000000</i>
   <i type="int" name="TURBO">     0</i>
   <i type="int" name="IRESTART">     0</i>
   <i type="int" name="NREBOOT">     0</i>
   <i type="int" name="NMIN">     0</i>
   <i name="EREF">      0.00000000</i>
   <separator name="electronic smearing" >
    <i type="int" name="ISMEAR">     1</i>
    <i name="SIGMA">      0.20000000</i>
    <i name="KSPACING">      0.50000000</i>
    <i type="logical" name="KGAMMA"> T  </i>
    <i type="logical" name="KBLOWUP"> T  </i>
   </separator>
   <separator name="electronic projectors" >
    <i type="logical" name="LREAL"> F  </i>
    <v name="ROPT">      0.00000000      0.00000000</v>
    <i type="int" name="LMAXPAW">  -100</i>
    <i type="int" name="LMAXMIX">     2</i>
    <i type="logical" name="NLSPLINE"> F  </i>
   </separator>
   <separator name="electronic startup" >
    <i type="int" name="ISTART">     0</i>
    <i type="int" name="ICHARG">     2</i>
    <i type="int" name="INIWAV">     1</i>
   </separator>
   <separator name="electronic spin" >
    <i type="int" name="ISPIN">     1</i>
    <i type="logical" name="LNONCOLLINEAR"> F  </i>
    <v name="MAGMOM">      1.00000000      1.00000000      1.00000000      1.00000000      1.00000000      1.00000000      1.00000000      1.00000000      1.00000000      1.00000000      1.00000000      1.00000000      1.00000000      1.00000000      1.00000000      1.00000000      1.00000000      1.00000000      1.00000000      1.00000000
      1.00000000      1.00000000      1.00000000      1.00000000      1.00000000      1.00000000      1.00000000      1.00000000      1.00000000      1.00000000      1.00000000      1.00000000      1.00000000      1.00000000      1.00000000      1.00000000      1.00000000      1.00000000      1.00000000      1.00000000
      1.00000000      1.00000000      1.00000000      1.00000000      1.00000000      1.00000000      1.00000000      1.00000000      1.00000000      1.00000000      1.00000000      1.00000000      1.00000000      1.00000000      1.00000000      1.00000000      1.00000000      1.00000000      1.00000000      1.00000000
      1.00000000      1.00000000      1.00000000      1.00000000</v>
    <i name="NUPDOWN">     -1.00000000</i>
    <i type="logical" name="LSORBIT"> F  </i>
    <v name="SAXIS">      0.00000000      0.00000000      1.00000000</v>
    <i type="logical" name="LSPIRAL"> F  </i>
    <v name="QSPIRAL">      0.00000000      0.00000000      0.00000000</v>
    <i type="logical" name="LZEROZ"> F  </i>
   </separator>
   <separator name="electronic exchange-correlation" >
    <i type="logical" name="LASPH"> F  </i>
    <i type="logical" name="LMETAGGA"> F  </i>
   </separator>
   <separator name="electronic convergence" >
    <i type="int" name="NELM">    60</i>
    <i type="int" name="NELMDL">    -5</i>
    <i type="int" name="NELMIN">     2</i>
    <i name="ENINI">    400.00000000</i>
    <separator name="electronic convergence detail" >
     <i type="logical" name="LDIAG"> T  </i>
     <i type="logical" name="LSUBROT"> F  </i>
     <i name="WEIMIN">      0.00000000</i>
     <i name="EBREAK">      0.00000000</i>
     <i name="DEPER">      0.30000000</i>
     <i type="int" name="NRMM">     4</i>
     <i name="TIME">      0.40000000</i>
    </separator>
   </separator>
   <separator name="electronic mixer" >
    <i name="AMIX">      0.40000000</i>
    <i name="BMIX">      1.00000000</i>
    <i name="AMIN">      0.10000000</i>
    <i name="AMIX_MAG">      1.60000000</i>
    <i name="BMIX_MAG">      1.00000000</i>
    <separator name="electronic mixer details" >
     <i type="int" name="IMIX">     4</i>
     <i type="logical" name="MIXFIRST"> F  </i>
     <i type="int" name="MAXMIX">   -45</i>
     <i name="WC">    100.00000000</i>
     <i type="int" name="INIMIX">     1</i>
     <i type="int" name="MIXPRE">     1</i>
     <i type="int" name="MREMOVE">     5</i>
    </separator>
   </separator>
   <separator name="electronic dipolcorrection" >
    <i type="logical" name="LDIPOL"> F  </i>
    <i type="logical" name="LMONO"> F  </i>
    <i type="int" name="IDIPOL">     0</i>
    <i name="EPSILON">      1.00000000</i>
    <v name="DIPOL">   -100.00000000   -100.00000000   -100.00000000</v>
    <i name="EFIELD">      0.00000000</i>
   </separator>
  </separator>
  <separator name="grids" >
   <i type="int" name="NGX">    48</i>
   <i type="int" name="NGY">    48</i>
   <i type="int" name="NGZ">    48</i>
   <i type="int" name="NGXF">    96</i>
   <i type="int" name="NGYF">    96</i>
   <i type="int" name="NGZF">    96</i>
   <i type="logical" name="ADDGRID"> F  </i>
  </separator>
  <separator name="ionic" >
   <i type="int" name="NSW">     0</i>
   <i type="int" name="IBRION">    -1</i>
   <i type="int" name="MDALGO">     0</i>
   <i type="int" name="ISIF">     3</i>
   <i name="PSTRESS">      0.00000000</i>
   <i name="EDIFFG">      0.00000010</i>
   <i type="int" name="NFREE">     0</i>
   <i name="POTIM">      0.50000000</i>
   <i name="SMASS">     -3.00000000</i>
   <i name="SCALEE">      1.00000000</i>
  </separator>
  <separator name="ionic md" >
   <i name="TEBEG">      0.00010000</i>
   <i name="TEEND">      0.00010000</i>
   <i type="int" name="NBLOCK">     1</i>
   <i type="int" name="KBLOCK">     1</i>
   <i type="int" name="NPACO">   256</i>
   <i name="APACO">     16.00000000</i>
  </separator>
  <separator name="symmetry" >
   <i type="int" name="ISYM">     0</i>
   <i name="SYMPREC">      0.00001000</i>
  </separator>
  <separator name="dos" >
   <i type="int" name="LORBIT">     0</i>
   <v name="RWIGS">     -1.00000000     -1.00000000</v>
   <i type="int" name="NEDOS">   301</i>
   <i name="EMIN">     10.00000000</i>
   <i name="EMAX">    -10.00000000</i>
   <i name="EFERMI">      0.00000000</i>
  </separator>
  <separator name="writing" >
   <i type="int" name="NWRITE">     2</i>
   <i type="logical" name="LWAVE"> F  </i>
   <i type="logical" name="LDOWNSAMPLE"> F  </i>
   <i type="logical" name="LCHARG"> F  </i>
   <i type="logical" name="LPARD"> F  </i>
   <i type="logical" name="LVTOT"> F  </i>
   <i type="logical" name="LVHAR"> F  </i>
   <i type="logical" name="LELF"> F  </i>
   <i type="logical" name="LOPTICS"> F  </i>
   <v name="STM">      0.00000000      0.00000000      0.00000000      0.00000000      0.00000000      0.00000000      0.00000000</v>
  </separator>
  <separator name="performance" >
   <i type="int" name="NPAR">     8</i>
   <i type="int" name="NSIM">     4</i>
   <i type="int" name="NBLK">    -1</i>
   <i type="logical" name="LPLANE"> T  </i>
   <i type="logical" name="LSCALAPACK"> T  </i>
   <i type="logical" name="LSCAAWARE"> F  </i>
   <i type="logical" name="LSCALU"> F  </i>
   <i type="logical" name="LASYNC"> F  </i>
   <i type="logical" name="LORBITALREAL"> F  </i>
  </separator>
  <separator name="miscellaneous" >
   <i type="int" name="IDIOT">     3</i>
   <i type="int" name="PHON_NSTRUCT">    -1</i>
   <i type="logical" name="LMUSIC"> F  </i>
   <v name="POMASS">     12.01100000     28.08500000</v>
   <v name="DARWINR">      0.00000000      0.00000000</v>
   <v name="DARWINV">      1.00000000      1.00000000</v>
   <i type="logical" name="LCORR"> T  </i>
  </separator>
  <i type="logical" name="GGA_COMPAT"> T  </i>
  <i type="logical" name="LBERRY"> F  </i>
  <i type="int" name="ICORELEVEL">     0</i>
  <i type="logical" name="LDAU"> F  </i>
  <i type="int" name="I_CONSTRAINED_M">     0</i>
  <separator name="electronic exchange-correlation" >
   <i type="string" name="GGA">PE</i>
   <i type="int" name="VOSKOWN">     0</i>
   <i type="logical" name="LHFCALC"> F  </i>
   <i type="string" name="PRECFOCK"></i>
   <i type="logical" name="LSYMGRAD"> F  </i>
   <i type="logical" name="LHFONE"> F  </i>
   <i type="logical" name="LRHFCALC"> F  </i>
   <i type="logical" name="LTHOMAS"> F  </i>
   <i type="logical" name="LMODELHF"> F  </i>
   <i type="logical" name="LFOCKACE"> F  </i>
   <i name="ENCUT4O">     -1.00000000</i>
   <i type="int" name="EXXOEP">     0</i>
   <i type="int" name="FOURORBIT">     0</i>
   <i name="AEXX">      0.00000000</i>
   <i name="HFALPHA">      0.00000000</i>
   <i name="MCALPHA">      0.00000000</i>
   <i name="ALDAX">      1.00000000</i>
   <i name="AGGAX">      1.00000000</i>
   <i name="ALDAC">      1.00000000</i>
   <i name="AGGAC">      1.00000000</i>
   <i type="int" name="NKREDX">     1</i>
   <i type="int" name="NKREDY">     1</i>
   <i type="int" name="NKREDZ">     1</i>
   <i type="logical" name="SHIFTRED"> F  </i>
   <i type="logical" name="ODDONLY"> F  </i>
   <i type="logical" name="EVENONLY"> F  </i>
   <i type="int" name="LMAXFOCK">     0</i>
   <i type="int" name="NMAXFOCKAE">     0</i>
   <i type="logical" name="LFOCKAEDFT"> F  </i>
   <i name="HFSCREEN">      0.00000000</i>
   <i name="HFSCREENC">      0.00000000</i>
   <i type="int" name="NBANDSGWLOW">     0</i>
  </separator>
  <separator name="vdW DFT" >
   <i type="logical" name="LUSE_VDW"> F  </i>
   <i name="Zab_VDW">     -0.84910000</i>
   <i name="PARAM1">      0.12340000</i>
   <i name="PARAM2">      1.00000000</i>
   <i name="PARAM3">      0.00000000</i>
  </separator>
  <separator name="model GW" >
   <i type="int" name="MODEL_GW">     0</i>
   <i name="MODEL_EPS0">      6.26613487</i>
   <i name="MODEL_ALPHA">      1.00000000</i>
  </separator>
  <separator name="linear response parameters" >
   <i type="logical" name="LEPSILON"> F  </i>
   <i type="logical" name="LRPA"> F  </i>
   <i type="logical" name="LNABLA"> F  </i>
   <i type="logical" name="LVEL"> F  </i>
   <i type="int" name="KINTER">     0</i>
   <i name="CSHIFT">      0.10000000</i>
   <i name="OMEGAMAX">     -1.00000000</i>
   <i name="DEG_THRESHOLD">      0.00200000</i>
   <i name="RTIME">     -0.10000000</i>
   <i name="WPLASMAI">      0.00000000</i>
   <v name="DFIELD">      0.00000000      0.00000000      0.00000000</v>
   <v name="WPLASMA">      0.00000000      0.00000000      0.00000000      0.00000000      0.00000000      0.00000000      0.00000000      0.00000000      0.00000000</v>
  </separator>
  <separator name="orbital magnetization" >
   <i type="logical" name="NUCIND"> F  </i>
   <v name="MAGPOS">      0.00000000      0.00000000      0.00000000</v>
   <i type="logical" name="LNICSALL"> T  </i>
   <i type="logical" name="ORBITALMAG"> F  </i>
   <i type="logical" name="LMAGBLOCH"> F  </i>
   <i type="logical" name="LCHIMAG"> F  </i>
   <i type="logical" name="LGAUGE"> T  </i>
   <i type="int" name="MAGATOM">     0</i>
   <v name="MAGDIPOL">      0.00000000      0.00000000      0.00000000</v>
   <v name="AVECCONST">      0.00000000      0.00000000      0.00000000</v>
  </separator>
  <separator name="response functions" >
   <i type="logical" name="LFINITE_TEMPERATURE"> F  </i>
   <i type="logical" name="LADDER"> F  </i>
   <i type="logical" name="LRPAFORCE"> F  </i>
   <i type="logical" name="LFXC"> F  </i>
   <i type="logical" name="LHARTREE"> T  </i>
   <i type="int" name="IBSE">     0</i>
   <v type="int" name="KPOINT">    -1     0     0     0</v>
   <i type="logical" name="LTCTC"> F  </i>
   <i type="logical" name="LTCTE"> F  </i>
   <i type="logical" name="LTETE"> F  </i>
   <i type="logical" name="LTRIPLET"> F  </i>
   <i type="logical" name="LFXCEPS"> F  </i>
   <i type="logical" name="LFXHEG"> F  </i>
   <i type="int" name="NATURALO">     2</i>
   <i type="logical" name="LHOLEGF"> F  </i>
   <i type="logical" name="L2ORDER"> F  </i>
   <i type="logical" name="LDMP1"> F  </i>
   <i type="logical" name="LMP2LT"> F  </i>
   <i type="logical" name="LSMP2LT"> F  </i>
   <i type="logical" name="LGWLF"> F  </i>
   <i name="ENCUTGW">     -2.00000000</i>
   <i name="ENCUTGWSOFT">     -2.00000000</i>
   <i name="ENCUTLF">     -1.00000000</i>
   <i type="logical" name="LESF_SPLINES"> F  </i>
   <i type="int" name="LMAXMP2">    -1</i>
   <i name="SCISSOR">      0.00000000</i>
   <i type="int" name="NOMEGA">     0</i>
   <i type="int" name="NOMEGAR">     0</i>
   <i type="int" name="NBANDSGW">    -1</i>
   <i type="int" name="NBANDSO">    -1</i>
   <i type="int" name="NBANDSV">    -1</i>
   <i type="int" name="NELM">    60</i>
   <i type="int" name="NELMHF">     1</i>
   <i type="int" name="DIM">     3</i>
   <i type="int" name="IESPILON">     4</i>
   <i type="int" name="ANTIRES">     0</i>
   <i name="OMEGAMAX">    -30.00000000</i>
   <i name="OMEGAMIN">    -30.00000000</i>
   <i name="OMEGATL">   -200.00000000</i>
   <i type="int" name="OMEGAGRID">     0</i>
   <i name="CSHIFT">     -0.10000000</i>
   <i type="logical" name="LSELFENERGY"> F  </i>
   <i type="logical" name="LSPECTRAL"> F  </i>
   <i type="logical" name="LSPECTRALGW"> F  </i>
   <i type="logical" name="LSINGLES"> F  </i>
   <i type="logical" name="LFERMIGW"> F  </i>
   <i type="logical" name="ODDONLYGW"> F  </i>
   <i type="logical" name="EVENONLYGW"> F  </i>
   <i type="int" name="NKREDLFX">     1</i>
   <i type="int" name="NKREDLFY">     1</i>
   <i type="int" name="NKREDLFZ">     1</i>
   <i type="int" name="MAXMEM">  2800</i>
   <i type="int" name="TELESCOPE">     0</i>
   <i type="int" name="NTAUPAR">    -1</i>
   <i type="int" name="NOMEGAPAR">    -1</i>
   <i name="DAMP_NEWTON">      0.80000001</i>
   <i name="LAMBDA">      1.00000000</i>
  </separator>
  <separator name="External order field" >
   <i name="OFIELD_KAPPA">      0.00000000</i>
   <v name="OFIELD_K">      0.00000000      0.00000000      0.00000000</v>
   <i name="OFIELD_Q6_NEAR">      0.00000000</i>
   <i name="OFIELD_Q6_FAR">      0.00000000</i>
   <i name="OFIELD_A">      0.00000000</i>
  </separator>
 </parameters>
 <atominfo>
  <atoms>      64 </atoms>
  <types>       2 </types>
  <array name="atoms" >
   <dimension dim="1">ion</dimension>
   <field type="string">element</field>
   <field type="int">atomtype</field>
   <set>
    <rc><c>C </c><c>   1</c></rc>
    <rc><c>C </c><c>   1</c></rc>
    <rc><c>C </c><c>   1</c></rc>
    <rc><c>C </c><c>   1</c></rc>
    <rc><c>C </c><c>   1</c></rc>
    <rc><c>C </c><c>   1</c></rc>
    <rc><c>C </c><c>   1</c></rc>
    <rc><c>C </c><c>   1</c></rc>
    <rc><c>C </c><c>   1</c></rc>
    <rc><c>C </c><c>   1</c></rc>
    <rc><c>C </c><c>   1</c></rc>
    <rc><c>C </c><c>   1</c></rc>
    <rc><c>C </c><c>   1</c></rc>
    <rc><c>C </c><c>   1</c></rc>
    <rc><c>C </c><c>   1</c></rc>
    <rc><c>C </c><c>   1</c></rc>
    <rc><c>C </c><c>   1</c></rc>
    <rc><c>C </c><c>   1</c></rc>
    <rc><c>C </c><c>   1</c></rc>
    <rc><c>C </c><c>   1</c></rc>
    <rc><c>C </c><c>   1</c></rc>
    <rc><c>C </c><c>   1</c></rc>
    <rc><c>C </c><c>   1</c></rc>
    <rc><c>C </c><c>   1</c></rc>
    <rc><c>C </c><c>   1</c></rc>
    <rc><c>C </c><c>   1</c></rc>
    <rc><c>C </c><c>   1</c></rc>
    <rc><c>C </c><c>   1</c></rc>
    <rc><c>C </c><c>   1</c></rc>
    <rc><c>C </c><c>   1</c></rc>
    <rc><c>C </c><c>   1</c></rc>
    <rc><c>C </c><c>   1</c></rc>
    <rc><c>Si</c><c>   2</c></rc>
    <rc><c>Si</c><c>   2</c></rc>
    <rc><c>Si</c><c>   2</c></rc>
    <rc><c>Si</c><c>   2</c></rc>
    <rc><c>Si</c><c>   2</c></rc>
    <rc><c>Si</c><c>   2</c></rc>
    <rc><c>Si</c><c>   2</c></rc>
    <rc><c>Si</c><c>   2</c></rc>
    <rc><c>Si</c><c>   2</c></rc>
    <rc><c>Si</c><c>   2</c></rc>
    <rc><c>Si</c><c>   2</c></rc>
    <rc><c>Si</c><c>   2</c></rc>
    <rc><c>Si</c><c>   2</c></rc>
    <rc><c>Si</c><c>   2</c></rc>
    <rc><c>Si</c><c>   2</c></rc>
    <rc><c>Si</c><c>   2</c></rc>
    <rc><c>Si</c><c>   2</c></rc>
    <rc><c>Si</c><c>   2</c></rc>
    <rc><c>Si</c><c>   2</c></rc>
    <rc><c>Si</c><c>   2</c></rc>
    <rc><c>Si</c><c>   2</c></rc>
    <rc><c>Si</c><c>   2</c></rc>
    <rc><c>Si</c><c>   2</c></rc>
    <rc><c>Si</c><c>   2</c></rc>
    <rc><c>Si</c><c>   2</c></rc>
    <rc><c>Si</c><c>   2</c></rc>
    <rc><c>Si</c><c>   2</c></rc>
    <rc><c>Si</c><c>   2</c></rc>
    <rc><c>Si</c><c>   2</c></rc>
    <rc><c>Si</c><c>   2</c></rc>
    <rc><c>Si</c><c>   2</c></rc>
    <rc><c>Si</c><c>   2</c></rc>
   </set>
  </array>
  <array name="atomtypes" >
   <dimension dim="1">type</dimension>
   <field type="int">atomspertype</field>
   <field type="string">element</field>
   <field>mass</field>
   <field>valence</field>
   <field type="string">pseudopotential</field>
   <set>
    <rc><c>  32</c><c>C </c><c>     12.01100000</c><c>      4.00000000</c><c>  PAW_PBE C 08Apr2002                   </c></rc>
    <rc><c>  32</c><c>Si</c><c>     28.08500000</c><c>      4.00000000</c><c>  PAW_PBE Si 05Jan2001                  </c></rc>
   </set>
  </array>
 </atominfo>
 <structure name="initialpos" >
  <crystal>
   <varray name="basis" >
    <v>       8.74331558       0.00000000       0.00000000 </v>
    <v>       0.00000000       8.74331558       0.00000000 </v>
    <v>       0.00000000       0.00000000       8.74331558 </v>
   </varray>
   <i name="volume">    668.38771987 </i>
   <varray name="rec_basis" >
    <v>       0.11437309       0.00000000       0.00000000 </v>
    <v>       0.00000000       0.11437309       0.00000000 </v>
    <v>       0.00000000       0.00000000       0.11437309 </v>
   </varray>
  </crystal>
  <varray name="positions" >
   <v>       0.12186308       0.12589107       0.12199427 </v>
   <v>       0.12811835       0.37681886       0.37592970 </v>
   <v>       0.37907525       0.12652063       0.37857251 </v>
   <v>       0.37473830       0.37374704       0.12489188 </v>
   <v>       0.12555771       0.12052329       0.62901025 </v>
   <v>       0.12473555       0.37622498       0.87361731 </v>
   <v>       0.37488997       0.12182592       0.87546763 </v>
   <v>       0.37482393       0.37232028       0.62455181 </v>
   <v>       0.12423673       0.62534697       0.12517231 </v>
   <v>       0.12557272       0.87276648       0.37978642 </v>
   <v>       0.37242093       0.62094309       0.37172335 </v>
   <v>       0.37519652       0.87662772       0.12299885 </v>
   <v>       0.12566376       0.62462395       0.62644001 </v>
   <v>       0.12514528       0.87755609       0.87368460 </v>
   <v>       0.37699578       0.62051597       0.87254566 </v>
   <v>       0.37935823       0.87986651       0.62423788 </v>
   <v>       0.62257278       0.12204321       0.12497383 </v>
   <v>       0.62441215       0.37588908       0.37612809 </v>
   <v>       0.87753422       0.12253768       0.37641957 </v>
   <v>       0.87221909       0.37360851       0.12547575 </v>
   <v>       0.62319679       0.12351130       0.62466932 </v>
   <v>       0.62285566       0.37317703       0.87293486 </v>
   <v>       0.87548845       0.12440966       0.87496885 </v>
   <v>       0.87555584       0.37907297       0.62577683 </v>
   <v>       0.62639269       0.62408292       0.12396517 </v>
   <v>       0.62484281       0.87735076       0.37716851 </v>
   <v>       0.87818267       0.62433973       0.37522886 </v>
   <v>       0.87574770       0.87347048       0.12424548 </v>
   <v>       0.62573832       0.62119184       0.62534478 </v>
   <v>       0.62599846       0.87506826       0.87558110 </v>
   <v>       0.87744901       0.62657753       0.87772860 </v>
   <v>       0.87520285       0.87741833       0.62405629 </v>
   <v>       0.00036419       0.99978957       0.00364370 </v>
   <v>       0.99585862       0.25061878       0.25166278 </v>
   <v>       0.25068557       0.99850902       0.25208200 </v>
   <v>       0.24923629       0.24744775       0.00444624 </v>
   <v>       0.00425886       0.00449045       0.49872213 </v>
   <v>       0.99609254       0.24772244       0.74813729 </v>
   <v>       0.24755038       0.99778036       0.74764236 </v>
   <v>       0.24860522       0.25057985       0.50071295 </v>
   <v>       0.00375747       0.49819161       0.00322518 </v>
   <v>       0.00145566       0.75094042       0.25194886 </v>
   <v>       0.24979124       0.50132039       0.25246879 </v>
   <v>       0.24917020       0.74804775       0.99832829 </v>
   <v>       0.99840763       0.49902713       0.49716192 </v>
   <v>       0.99673085       0.74879788       0.74962815 </v>
   <v>       0.24838175       0.50111331       0.74922400 </v>
   <v>       0.24887371       0.74940979       0.49641136 </v>
   <v>       0.50304117       0.99933296       0.99693275 </v>
   <v>       0.49915701       0.25544107       0.24947509 </v>
   <v>       0.74715802       0.99565906       0.25298192 </v>
   <v>       0.75080363       0.25176966       0.00271213 </v>
   <v>       0.49564308       0.99673971       0.49994820 </v>
   <v>       0.49814349       0.25163427       0.74552313 </v>
   <v>       0.74732765       0.99962854       0.75004386 </v>
   <v>       0.74981293       0.25093876       0.49935469 </v>
   <v>       0.49716504       0.50106199       0.99745656 </v>
   <v>       0.50231351       0.74890300       0.25100834 </v>
   <v>       0.74624038       0.49981091       0.25046990 </v>
   <v>       0.74840987       0.74879251       0.99985470 </v>
   <v>       0.50099932       0.50015131       0.50278203 </v>
   <v>       0.49942567       0.74562010       0.75255364 </v>
   <v>       0.75204972       0.50024433       0.75239339 </v>
   <v>       0.74717213       0.74985223       0.50181123 </v>
  </varray>
 </structure>
 <calculation>
  <scstep>
   <time name="dav">    4.84    4.84</time>
   <time name="total">    4.87    4.87</time>
   <energy>
    <i name="alphaZ">    354.85177120 </i>
    <i name="ewald">  -9081.75069501 </i>
    <i name="hartreedc">   -671.47911130 </i>
    <i name="XCdc">    145.84269251 </i>
    <i name="pawpsdc">   6292.66707184 </i>
    <i name="pawaedc">  -5747.90303932 </i>
    <i name="eentropy">      0.00659780 </i>
    <i name="bandstr">   1370.64511804 </i>
    <i name="atom">   8006.17504320 </i>
    <i name="e_fr_energy">    669.05544895 </i>
    <i name="e_wo_entrp">    669.04885115 </i>
    <i name="e_0_energy">    669.05324969 </i>
   </energy>
  </scstep>
  <scstep>
   <time name="dav">    5.83    5.84</time>
   <time name="total">    5.84    5.85</time>
   <energy>
    <i name="e_fr_energy">   -462.24212046 </i>
    <i name="e_wo_entrp">   -462.25798778 </i>
    <i name="e_0_energy">   -462.24740957 </i>
   </energy>
  </scstep>
  <scstep>
   <time name="dav">    5.54    5.54</time>
   <time name="total">    5.54    5.55</time>
   <energy>
    <i name="e_fr_energy">   -537.69332969 </i>
    <i name="e_wo_entrp">   -537.71416328 </i>
    <i name="e_0_energy">   -537.70027422 </i>
   </energy>
  </scstep>
  <scstep>
   <time name="dav">    5.57    5.58</time>
   <time name="total">    5.57    5.58</time>
   <energy>
    <i name="e_fr_energy">   -539.37193531 </i>
    <i name="e_wo_entrp">   -539.39358509 </i>
    <i name="e_0_energy">   -539.37915190 </i>
   </energy>
  </scstep>
  <scstep>
   <time name="dav">    5.43    5.44</time>
   <time name="total">    5.54    5.55</time>
   <energy>
    <i name="e_fr_energy">   -539.41742946 </i>
    <i name="e_wo_entrp">   -539.43904101 </i>
    <i name="e_0_energy">   -539.42463331 </i>
   </energy>
  </scstep>
  <scstep>
   <time name="dav">    5.67    5.68</time>
   <time name="total">    6.57    6.58</time>
   <energy>
    <i name="e_fr_energy">   -482.72546506 </i>
    <i name="e_wo_entrp">   -482.73642128 </i>
    <i name="e_0_energy">   -482.72911713 </i>
   </energy>
  </scstep>
  <scstep>
   <time name="dav">    5.69    5.70</time>
   <time name="total">    5.86    5.87</time>
   <energy>
    <i name="e_fr_energy">   -481.37642883 </i>
    <i name="e_wo_entrp">   -481.38626985 </i>
    <i name="e_0_energy">   -481.37970917 </i>
   </energy>
  </scstep>
  <scstep>
   <time name="dav">    5.31    5.32</time>
   <time name="total">    5.47    5.48</time>
   <energy>
    <i name="e_fr_energy">   -481.14755914 </i>
    <i name="e_wo_entrp">   -481.15756946 </i>
    <i name="e_0_energy">   -481.15089592 </i>
   </energy>
  </scstep>
  <scstep>
   <time name="dav">    5.37    5.38</time>
   <time name="total">    5.54    5.55</time>
   <energy>
    <i name="e_fr_energy">   -481.13115459 </i>
    <i name="e_wo_entrp">   -481.14105721 </i>
    <i name="e_0_energy">   -481.13445547 </i>
   </energy>
  </scstep>
  <scstep>
   <time name="dav">    5.60    5.61</time>
   <time name="total">    5.77    5.78</time>
   <energy>
    <i name="e_fr_energy">   -481.13410188 </i>
    <i name="e_wo_entrp">   -481.14401227 </i>
    <i name="e_0_energy">   -481.13740534 </i>
   </energy>
  </scstep>
  <scstep>
   <time name="dav">    5.18    5.18</time>
   <time name="total">    5.38    5.39</time>
   <energy>
    <i name="e_fr_energy">   -481.13516910 </i>
    <i name="e_wo_entrp">   -481.14507960 </i>
    <i name="e_0_energy">   -481.13847260 </i>
   </energy>
  </scstep>
  <scstep>
   <time name="dav">    6.05    6.05</time>
   <time name="total">    6.22    6.23</time>
   <energy>
    <i name="e_fr_energy">   -481.13522943 </i>
    <i name="e_wo_entrp">   -481.14513405 </i>
    <i name="e_0_energy">   -481.13853097 </i>
   </energy>
  </scstep>
  <scstep>
   <time name="dav">    5.10    5.10</time>
   <time name="total">    5.27    5.27</time>
   <energy>
    <i name="e_fr_energy">   -481.13524252 </i>
    <i name="e_wo_entrp">   -481.14514930 </i>
    <i name="e_0_energy">   -481.13854478 </i>
   </energy>
  </scstep>
  <scstep>
   <time name="dav">    5.42    5.42</time>
   <time name="total">    5.59    5.59</time>
   <energy>
    <i name="e_fr_energy">   -481.13524835 </i>
    <i name="e_wo_entrp">   -481.14515482 </i>
    <i name="e_0_energy">   -481.13855051 </i>
   </energy>
  </scstep>
  <scstep>
   <time name="dav">    5.46    5.46</time>
   <time name="total">    5.63    5.63</time>
   <energy>
    <i name="e_fr_energy">   -481.13525021 </i>
    <i name="e_wo_entrp">   -481.14515657 </i>
    <i name="e_0_energy">   -481.13855233 </i>
   </energy>
  </scstep>
  <scstep>
   <time name="dav">    5.66    5.66</time>
   <time name="total">    5.83    5.83</time>
   <energy>
    <i name="e_fr_energy">   -481.13524993 </i>
    <i name="e_wo_entrp">   -481.14515642 </i>
    <i name="e_0_energy">   -481.13855209 </i>
   </energy>
  </scstep>
  <scstep>
   <time name="dav">    5.20    5.20</time>
   <time name="total">    5.39    5.39</time>
   <energy>
    <i name="e_fr_energy">   -481.13525032 </i>
    <i name="e_wo_entrp">   -481.14515675 </i>
    <i name="e_0_energy">   -481.13855246 </i>
   </energy>
  </scstep>
  <scstep>
   <time name="dav">    3.41    3.41</time>
   <time name="total">    3.58    3.58</time>
   <energy>
    <i name="e_fr_energy">   -481.13525035 </i>
    <i name="e_wo_entrp">   -481.14515677 </i>
    <i name="e_0_energy">   -481.13855249 </i>
   </energy>
  </scstep>
  <scstep>
   <time name="dav">    3.37    3.37</time>
   <time name="total">    3.54    3.54</time>
   <energy>
    <i name="e_fr_energy">   -481.13525032 </i>
    <i name="e_wo_entrp">   -481.14515672 </i>
    <i name="e_0_energy">   -481.13855245 </i>
   </energy>
  </scstep>
  <scstep>
   <time name="dav">    3.36    3.36</time>
   <time name="total">    3.38    3.38</time>
   <energy>
    <i name="alphaZ">    354.85177120 </i>
    <i name="ewald">  -9081.75069501 </i>
    <i name="hartreedc">  -1024.20444409 </i>
    <i name="XCdc">    179.28472770 </i>
    <i name="pawpsdc">  33055.17716341 </i>
    <i name="pawaedc"> -32516.11643720 </i>
    <i name="eentropy">      0.00990640 </i>
    <i name="bandstr">    545.43771406 </i>
    <i name="atom">   8006.17504320 </i>
    <i name="e_fr_energy">   -481.13525032 </i>
    <i name="e_wo_entrp">   -481.14515672 </i>
    <i name="e_0_energy">   -481.13855246 </i>
   </energy>
  </scstep>
  <structure>
   <crystal>
    <varray name="basis" >
     <v>       8.74331558       0.00000000       0.00000000 </v>
     <v>       0.00000000       8.74331558       0.00000000 </v>
     <v>       0.00000000       0.00000000       8.74331558 </v>
    </varray>
    <i name="volume">    668.38771987 </i>
    <varray name="rec_basis" >
     <v>       0.11437309       0.00000000       0.00000000 </v>
     <v>       0.00000000       0.11437309       0.00000000 </v>
     <v>       0.00000000       0.00000000       0.11437309 </v>
    </varray>
   </crystal>
   <varray name="positions" >
    <v>       0.12186308       0.12589107       0.12199427 </v>
    <v>       0.12811835       0.37681886       0.37592970 </v>
    <v>       0.37907525       0.12652063       0.37857251 </v>
    <v>       0.37473830       0.37374704       0.12489188 </v>
    <v>       0.12555771       0.12052329       0.62901025 </v>
    <v>       0.12473555       0.37622498       0.87361731 </v>
    <v>       0.37488997       0.12182592       0.87546763 </v>
    <v>       0.37482393       0.37232028       0.62455181 </v>
    <v>       0.12423673       0.62534697       0.12517231 </v>
    <v>       0.12557272       0.87276648       0.37978642 </v>
    <v>       0.37242093       0.62094309       0.37172335 </v>
    <v>       0.37519652       0.87662772       0.12299885 </v>
    <v>       0.12566376       0.62462395       0.62644001 </v>
    <v>       0.12514528       0.87755609       0.87368460 </v>
    <v>       0.37699578       0.62051597       0.87254566 </v>
    <v>       0.37935823       0.87986651       0.62423788 </v>
    <v>       0.62257278       0.12204321       0.12497383 </v>
    <v>       0.62441215       0.37588908       0.37612809 </v>
    <v>       0.87753422       0.12253768       0.37641957 </v>
    <v>       0.87221909       0.37360851       0.12547575 </v>
    <v>       0.62319679       0.12351130       0.62466932 </v>
    <v>       0.62285566       0.37317703       0.87293486 </v>
    <v>       0.87548845       0.12440966       0.87496885 </v>
    <v>       0.87555584       0.37907297       0.62577683 </v>
    <v>       0.62639269       0.62408292       0.12396517 </v>
    <v>       0.62484281       0.87735076       0.37716851 </v>
    <v>       0.87818267       0.62433973       0.37522886 </v>
    <v>       0.87574770       0.87347048       0.12424548 </v>
    <v>       0.62573832       0.62119184       0.62534478 </v>
    <v>       0.62599846       0.87506826       0.87558110 </v>
    <v>       0.87744901       0.62657753       0.87772860 </v>
    <v>       0.87520285       0.87741833       0.62405629 </v>
    <v>       0.00036419       0.99978957       0.00364370 </v>
    <v>       0.99585862       0.25061878       0.25166278 </v>
    <v>       0.25068557       0.99850902       0.25208200 </v>
    <v>       0.24923629       0.24744775       0.00444624 </v>
    <v>       0.00425886       0.00449045       0.49872213 </v>
    <v>       0.99609254       0.24772244       0.74813729 </v>
    <v>       0.24755038       0.99778036       0.74764236 </v>
    <v>       0.24860522       0.25057985       0.50071295 </v>
    <v>       0.00375747       0.49819161       0.00322518 </v>
    <v>       0.00145566       0.75094042       0.25194886 </v>
    <v>       0.24979124       0.50132039       0.25246879 </v>
    <v>       0.24917020       0.74804775       0.99832829 </v>
    <v>       0.99840763       0.49902713       0.49716192 </v>
    <v>       0.99673085       0.74879788       0.74962815 </v>
    <v>       0.24838175       0.50111331       0.74922400 </v>
    <v>       0.24887371       0.74940979       0.49641136 </v>
    <v>       0.50304117       0.99933296       0.99693275 </v>
    <v>       0.49915701       0.25544107       0.24947509 </v>
    <v>       0.74715802       0.99565906       0.25298192 </v>
    <v>       0.75080363       0.25176966       0.00271213 </v>
    <v>       0.49564308       0.99673971       0.49994820 </v>
    <v>       0.49814349       0.25163427       0.74552313 </v>
    <v>       0.74732765       0.99962854       0.75004386 </v>
    <v>       0.74981293       0.25093876       0.49935469 </v>
    <v>       0.49716504       0.50106199       0.99745656 </v>
    <v>       0.50231351       0.74890300       0.25100834 </v>
    <v>       0.74624038       0.49981091       0.25046990 </v>
    <v>       0.74840987       0.74879251       0.99985470 </v>
    <v>       0.50099932       0.50015131       0.50278203 </v>
    <v>       0.49942567       0.74562010       0.75255364 </v>
    <v>       0.75204972       0.50024433       0.75239339 </v>
    <v>       0.74717213       0.74985223       0.50181123 </v>
   </varray>
  </structure>
  <varray name="forces" >
   <v>       0.27141826      -0.16778295       1.50502001 </v>
   <v>      -0.89752552      -0.54204126      -0.18758123 </v>
   <v>      -1.02519452       0.00451161      -0.75071965 </v>
   <v>      -0.29823435       0.66959444       0.08014321 </v>
   <v>      -0.23873971       1.26708692      -0.96591169 </v>
   <v>       0.05086664      -0.57055541       0.34286362 </v>
   <v>      -0.13015134       0.54883387      -0.34575576 </v>
   <v>      -0.38956215       0.88940618      -0.12313174 </v>
   <v>       0.40332107      -0.05771433       0.34703061 </v>
   <v>      -0.06986324       0.68756248      -1.02578445 </v>
   <v>       0.99668260       0.90239439       0.90424540 </v>
   <v>       0.14873762      -0.67085188       0.29711552 </v>
   <v>      -0.26504398       0.19305102      -0.56959366 </v>
   <v>      -0.27259947      -0.91304668       0.24364617 </v>
   <v>      -0.79252478       0.77584471       0.31761684 </v>
   <v>      -1.15673350      -1.91676919       0.36845841 </v>
   <v>       0.56890553       0.65963492       0.41793577 </v>
   <v>       0.06881025       0.08283741      -0.11623311 </v>
   <v>      -0.61300656       0.50584601      -0.22984499 </v>
   <v>       0.37825590       0.58431795       0.38037047 </v>
   <v>       0.17048705       0.24881116      -0.30730054 </v>
   <v>       0.37385853       0.42596204       0.37554276 </v>
   <v>      -0.42516246      -0.00190592       0.28810363 </v>
   <v>      -0.15482016      -0.83238874      -0.40371688 </v>
   <v>      -0.58532463       0.04087068       0.07271097 </v>
   <v>      -0.39437602      -1.07764466      -0.00037061 </v>
   <v>      -1.00116571       0.22023711      -0.20673934 </v>
   <v>      -0.29056885       0.03579710       0.60284165 </v>
   <v>      -0.09283962       0.64280669       0.27521535 </v>
   <v>      -0.14914431      -0.67960425      -0.19581493 </v>
   <v>      -0.43630477      -0.55546756      -0.04712103 </v>
   <v>      -0.18388160      -0.29428924      -0.05375131 </v>
   <v>      -0.26508474      -0.05730420      -1.02187555 </v>
   <v>       0.74744909      -0.11356567      -0.28750748 </v>
   <v>       0.09798737       0.52164142      -0.34136891 </v>
   <v>       0.22520868       0.20244607      -1.31707491 </v>
   <v>      -0.69737375      -1.09031325       0.68697190 </v>
   <v>       0.65574629       0.38298473       0.54508128 </v>
   <v>       0.92623596       0.19218357       0.88088381 </v>
   <v>       0.34079106      -0.45975895       0.18622989 </v>
   <v>      -0.72903402       0.11769928      -0.51927424 </v>
   <v>      -0.31965145      -0.13843999      -0.30964508 </v>
   <v>      -0.10865213      -0.53577094      -0.99877512 </v>
   <v>       0.17925779       0.53054267      -0.00894026 </v>
   <v>       0.62959778       0.31869750       0.75188450 </v>
   <v>       0.60095421       0.61434839       0.00213720 </v>
   <v>       0.14165302      -0.68819375      -0.10710020 </v>
   <v>       0.64583275      -0.23891670       1.19181127 </v>
   <v>      -0.78852790       0.18950960       0.37543897 </v>
   <v>       0.24249885      -1.26363322       0.14361716 </v>
   <v>       0.63269889       0.81806558      -0.72197140 </v>
   <v>      -0.61136918      -0.86648055      -0.74754272 </v>
   <v>       1.24581315       1.18137468       0.01695208 </v>
   <v>       0.12568758      -0.95774349       0.96177371 </v>
   <v>       0.53169797       0.24239087      -0.12155599 </v>
   <v>      -0.02513877      -0.39012396       0.45658290 </v>
   <v>       0.66798142      -0.82525359       0.41750676 </v>
   <v>      -0.58390494       0.26825090      -0.41905607 </v>
   <v>       0.85274971       0.13599020       0.01737171 </v>
   <v>       0.63277671       0.23844682       0.02876866 </v>
   <v>      -0.57658913      -0.36606903      -0.44196572 </v>
   <v>       0.34575008       0.93297642      -0.66381253 </v>
   <v>      -0.16760995      -0.10667484       0.17667112 </v>
   <v>       0.83599139       0.10534885      -0.10170624 </v>
  </varray>
  <varray name="stress" >
   <v>       3.54212109       1.18776482       1.63566384 </v>
   <v>       1.18776476       3.00110657      -7.02171260 </v>
   <v>       1.63566382      -7.02171260       3.72278003 </v>
  </varray>
  <energy>
   <i name="e_fr_energy">   -481.13525032 </i>
   <i name="e_wo_entrp">   -481.14515672 </i>
   <i name="e_0_energy">   -481.13855246 </i>
  </energy>
  <time name="totalsc">  114.46  114.57</time>
  <eigenvalues>
   <array>
    <dimension dim="1">band</dimension>
    <dimension dim="2">kpoint</dimension>
    <dimension dim="3">spin</dimension>
    <field>eigene</field>
    <field>occ</field>
    <set>
     <set comment="spin 1">
      <set comment="kpoint 1">
       <r>   -7.3441    1.0000 </r>
       <r>   -5.8493    1.0000 </r>
       <r>   -5.7865    1.0000 </r>
       <r>   -5.7680    1.0000 </r>
       <r>   -5.7489    1.0000 </r>
       <r>   -5.7343    1.0000 </r>
       <r>   -5.6739    1.0000 </r>
       <r>   -4.4813    1.0000 </r>
       <r>   -4.4547    1.0000 </r>
       <r>   -4.4265    1.0000 </r>
       <r>   -4.4049    1.0000 </r>
       <r>   -4.3676    1.0000 </r>
       <r>   -4.3566    1.0000 </r>
       <r>   -4.3331    1.0000 </r>
       <r>   -4.3170    1.0000 </r>
       <r>   -4.2883    1.0000 </r>
       <r>   -4.2738    1.0000 </r>
       <r>   -4.2391    1.0000 </r>
       <r>   -4.2062    1.0000 </r>
       <r>   -3.8118    1.0000 </r>
       <r>   -3.8019    1.0000 </r>
       <r>   -3.7675    1.0000 </r>
       <r>   -3.7399    1.0000 </r>
       <r>   -2.4262    1.0000 </r>
       <r>   -2.3884    1.0000 </r>
       <r>   -2.3576    1.0000 </r>
       <r>   -2.2081    1.0000 </r>
       <r>   -2.1639    1.0000 </r>
       <r>   -2.1343    1.0000 </r>
       <r>   -2.1099    1.0000 </r>
       <r>   -2.0740    1.0000 </r>
       <r>   -1.9923    1.0000 </r>
       <r>   -0.5335    1.0000 </r>
       <r>   -0.5024    1.0000 </r>
       <r>   -0.4789    1.0000 </r>
       <r>   -0.4477    1.0000 </r>
       <r>    0.2037    1.0000 </r>
       <r>    0.2305    1.0000 </r>
       <r>    0.2490    1.0000 </r>
       <r>    0.9325    1.0000 </r>
       <r>    0.9518    1.0000 </r>
       <r>    0.9749    1.0000 </r>
       <r>    1.0077    1.0000 </r>
       <r>    1.0237    1.0000 </r>
       <r>    1.0313    1.0000 </r>
       <r>    1.9548    1.0000 </r>
       <r>    1.9824    1.0000 </r>
       <r>    1.9974    1.0000 </r>
       <r>    2.0363    1.0000 </r>
       <r>    2.0514    1.0000 </r>
       <r>    2.0628    1.0000 </r>
       <r>    2.0943    1.0000 </r>
       <r>    2.1044    1.0000 </r>
       <r>    2.1284    1.0000 </r>
       <r>    2.1454    1.0000 </r>
       <r>    2.1475    1.0000 </r>
       <r>    2.1723    1.0000 </r>
       <r>    2.9829    1.0000 </r>
       <r>    2.9996    1.0000 </r>
       <r>    3.0370    1.0000 </r>
       <r>    3.0498    1.0000 </r>
       <r>    3.0707    1.0000 </r>
       <r>    3.1065    1.0000 </r>
       <r>    3.3154    1.0000 </r>
       <r>    3.3314    1.0000 </r>
       <r>    3.3499    1.0000 </r>
       <r>    3.3533    1.0000 </r>
       <r>    3.3639    1.0000 </r>
       <r>    3.3745    1.0000 </r>
       <r>    3.6059    1.0000 </r>
       <r>    3.6202    1.0000 </r>
       <r>    3.6444    1.0000 </r>
       <r>    3.6545    1.0000 </r>
       <r>    3.6726    1.0000 </r>
       <r>    3.6936    1.0000 </r>
       <r>    3.7059    1.0000 </r>
       <r>    3.7123    1.0000 </r>
       <r>    3.7270    1.0000 </r>
       <r>    3.7371    1.0000 </r>
       <r>    3.7577    1.0000 </r>
       <r>    3.7884    1.0000 </r>
       <r>    4.5726    1.0000 </r>
       <r>    4.6006    1.0000 </r>
       <r>    4.6189    1.0000 </r>
       <r>    4.6719    1.0000 </r>
       <r>    4.6861    1.0000 </r>
       <r>    4.6918    1.0000 </r>
       <r>    4.8062    1.0000 </r>
       <r>    4.8282    1.0000 </r>
       <r>    4.8393    1.0000 </r>
       <r>    4.8472    1.0000 </r>
       <r>    4.8743    1.0000 </r>
       <r>    4.8849    1.0000 </r>
       <r>    5.9468    1.0000 </r>
       <r>    6.0013    1.0000 </r>
       <r>    6.0083    1.0000 </r>
       <r>    6.0338    1.0000 </r>
       <r>    6.0427    1.0000 </r>
       <r>    6.0768    1.0000 </r>
       <r>    6.0888    1.0000 </r>
       <r>    6.0938    1.0000 </r>
       <r>    6.1110    1.0000 </r>
       <r>    6.1310    1.0000 </r>
       <r>    6.1647    1.0000 </r>
       <r>    6.2062    1.0000 </r>
       <r>    6.6919    1.0000 </r>
       <r>    6.7078    1.0000 </r>
       <r>    6.7372    1.0000 </r>
       <r>    6.7569    1.0000 </r>
       <r>    6.7638    1.0000 </r>
       <r>    6.7926    1.0000 </r>
       <r>    6.8011    1.0000 </r>
       <r>    6.8272    1.0000 </r>
       <r>    6.8388    1.0000 </r>
       <r>    6.8497    1.0000 </r>
       <r>    6.8817    1.0000 </r>
       <r>    6.9173    1.0000 </r>
       <r>    6.9385    1.0000 </r>
       <r>    6.9524    1.0000 </r>
       <r>    6.9689    1.0000 </r>
       <r>    7.0049    1.0000 </r>
       <r>    7.0323    1.0000 </r>
       <r>    7.0558    1.0000 </r>
       <r>    7.0861    1.0000 </r>
       <r>    7.1029    1.0000 </r>
       <r>    7.9847    1.0086 </r>
       <r>    8.0300    0.9443 </r>
       <r>    8.0714    0.8418 </r>
       <r>    9.3227   -0.0000 </r>
       <r>    9.3520   -0.0000 </r>
       <r>    9.3989   -0.0000 </r>
       <r>   11.9530   -0.0000 </r>
       <r>   11.9719   -0.0000 </r>
       <r>   12.0046   -0.0000 </r>
       <r>   12.0104   -0.0000 </r>
       <r>   12.0397   -0.0000 </r>
       <r>   12.0595   -0.0000 </r>
       <r>   12.2249   -0.0000 </r>
       <r>   12.2703   -0.0000 </r>
       <r>   12.3483   -0.0000 </r>
       <r>   13.0503   -0.0000 </r>
       <r>   13.0978   -0.0000 </r>
       <r>   13.1456   -0.0000 </r>
       <r>   13.1538   -0.0000 </r>
       <r>   13.1948   -0.0000 </r>
       <r>   13.2357   -0.0000 </r>
       <r>   13.2938   -0.0000 </r>
       <r>   13.3109   -0.0000 </r>
       <r>   13.3258   -0.0000 </r>
       <r>   13.3475   -0.0000 </r>
       <r>   13.3795   -0.0000 </r>
       <r>   13.4213   -0.0000 </r>
       <r>   13.4307   -0.0000 </r>
       <r>   13.4647   -0.0000 </r>
       <r>   13.4687   -0.0000 </r>
       <r>   13.4948   -0.0000 </r>
       <r>   13.5301   -0.0000 </r>
       <r>   13.5407   -0.0000 </r>
       <r>   13.5548   -0.0000 </r>
       <r>   13.5909   -0.0000 </r>
       <r>   13.6091   -0.0000 </r>
       <r>   13.6218    0.0000 </r>
       <r>   14.0835    0.0000 </r>
       <r>   14.1905    0.0000 </r>
       <r>   14.2430    0.0000 </r>
       <r>   14.2788    0.0000 </r>
       <r>   14.3197    0.0000 </r>
       <r>   14.3575    0.0000 </r>
      </set>
      <set comment="kpoint 2">
       <r>   -7.1650    1.0000 </r>
       <r>   -6.6327    1.0000 </r>
       <r>   -5.6471    1.0000 </r>
       <r>   -5.6157    1.0000 </r>
       <r>   -5.5822    1.0000 </r>
       <r>   -5.5407    1.0000 </r>
       <r>   -5.1598    1.0000 </r>
       <r>   -5.1280    1.0000 </r>
       <r>   -5.0997    1.0000 </r>
       <r>   -5.0585    1.0000 </r>
       <r>   -4.5917    1.0000 </r>
       <r>   -4.2839    1.0000 </r>
       <r>   -4.2421    1.0000 </r>
       <r>   -4.2007    1.0000 </r>
       <r>   -4.1929    1.0000 </r>
       <r>   -4.0138    1.0000 </r>
       <r>   -3.9810    1.0000 </r>
       <r>   -3.9490    1.0000 </r>
       <r>   -3.9329    1.0000 </r>
       <r>   -3.4475    1.0000 </r>
       <r>   -3.3989    1.0000 </r>
       <r>   -3.3638    1.0000 </r>
       <r>   -3.3418    1.0000 </r>
       <r>   -3.2296    1.0000 </r>
       <r>   -2.5951    1.0000 </r>
       <r>   -2.5318    1.0000 </r>
       <r>   -2.5061    1.0000 </r>
       <r>   -2.4791    1.0000 </r>
       <r>   -2.2939    1.0000 </r>
       <r>   -2.2497    1.0000 </r>
       <r>   -2.1918    1.0000 </r>
       <r>   -2.1459    1.0000 </r>
       <r>   -0.0728    1.0000 </r>
       <r>   -0.0536    1.0000 </r>
       <r>   -0.0042    1.0000 </r>
       <r>    0.0155    1.0000 </r>
       <r>    0.3636    1.0000 </r>
       <r>    0.3743    1.0000 </r>
       <r>    0.7005    1.0000 </r>
       <r>    0.7336    1.0000 </r>
       <r>    0.9731    1.0000 </r>
       <r>    1.0118    1.0000 </r>
       <r>    1.0400    1.0000 </r>
       <r>    1.0533    1.0000 </r>
       <r>    1.0882    1.0000 </r>
       <r>    1.1104    1.0000 </r>
       <r>    1.1461    1.0000 </r>
       <r>    1.1618    1.0000 </r>
       <r>    1.2621    1.0000 </r>
       <r>    1.3861    1.0000 </r>
       <r>    1.4020    1.0000 </r>
       <r>    1.4219    1.0000 </r>
       <r>    1.4526    1.0000 </r>
       <r>    2.6789    1.0000 </r>
       <r>    2.7033    1.0000 </r>
       <r>    2.7150    1.0000 </r>
       <r>    2.7291    1.0000 </r>
       <r>    2.8968    1.0000 </r>
       <r>    2.9343    1.0000 </r>
       <r>    2.9534    1.0000 </r>
       <r>    2.9687    1.0000 </r>
       <r>    2.9928    1.0000 </r>
       <r>    2.9991    1.0000 </r>
       <r>    3.0187    1.0000 </r>
       <r>    3.0452    1.0000 </r>
       <r>    3.0664    1.0000 </r>
       <r>    3.5251    1.0000 </r>
       <r>    3.5335    1.0000 </r>
       <r>    3.6416    1.0000 </r>
       <r>    3.6561    1.0000 </r>
       <r>    3.9808    1.0000 </r>
       <r>    4.0124    1.0000 </r>
       <r>    4.0307    1.0000 </r>
       <r>    4.0673    1.0000 </r>
       <r>    4.3305    1.0000 </r>
       <r>    4.3507    1.0000 </r>
       <r>    4.3660    1.0000 </r>
       <r>    4.3950    1.0000 </r>
       <r>    4.4229    1.0000 </r>
       <r>    4.4401    1.0000 </r>
       <r>    4.4583    1.0000 </r>
       <r>    4.4775    1.0000 </r>
       <r>    4.6199    1.0000 </r>
       <r>    4.6407    1.0000 </r>
       <r>    4.6546    1.0000 </r>
       <r>    4.6738    1.0000 </r>
       <r>    4.7972    1.0000 </r>
       <r>    4.8165    1.0000 </r>
       <r>    4.8451    1.0000 </r>
       <r>    4.8665    1.0000 </r>
       <r>    4.9696    1.0000 </r>
       <r>    5.0178    1.0000 </r>
       <r>    5.3703    1.0000 </r>
       <r>    5.4216    1.0000 </r>
       <r>    5.5833    1.0000 </r>
       <r>    5.6127    1.0000 </r>
       <r>    5.6255    1.0000 </r>
       <r>    5.6545    1.0000 </r>
       <r>    5.8481    1.0000 </r>
       <r>    5.8736    1.0000 </r>
       <r>    5.8958    1.0000 </r>
       <r>    5.9142    1.0000 </r>
       <r>    6.1764    1.0000 </r>
       <r>    6.2419    1.0000 </r>
       <r>    6.2575    1.0000 </r>
       <r>    6.2910    1.0000 </r>
       <r>    6.3157    1.0000 </r>
       <r>    6.4688    1.0000 </r>
       <r>    6.4845    1.0000 </r>
       <r>    6.4995    1.0000 </r>
       <r>    6.5312    1.0000 </r>
       <r>    6.7566    1.0000 </r>
       <r>    6.7994    1.0000 </r>
       <r>    6.8051    1.0000 </r>
       <r>    6.8233    1.0000 </r>
       <r>    6.8571    1.0000 </r>
       <r>    6.8822    1.0000 </r>
       <r>    6.8995    1.0000 </r>
       <r>    6.9181    1.0000 </r>
       <r>    6.9521    1.0000 </r>
       <r>    6.9676    1.0000 </r>
       <r>    6.9777    1.0000 </r>
       <r>    7.0049    1.0000 </r>
       <r>    7.0265    1.0000 </r>
       <r>    7.0820    1.0000 </r>
       <r>    7.4871    1.0000 </r>
       <r>    7.6523    1.0009 </r>
       <r>    7.7291    1.0046 </r>
       <r>    9.6772   -0.0000 </r>
       <r>   10.1696   -0.0000 </r>
       <r>   10.2297   -0.0000 </r>
       <r>   10.6167   -0.0000 </r>
       <r>   11.9291   -0.0000 </r>
       <r>   11.9808   -0.0000 </r>
       <r>   12.4761   -0.0000 </r>
       <r>   12.6260   -0.0000 </r>
       <r>   12.6421   -0.0000 </r>
       <r>   12.6498   -0.0000 </r>
       <r>   12.6710   -0.0000 </r>
       <r>   12.9211   -0.0000 </r>
       <r>   12.9536   -0.0000 </r>
       <r>   12.9648   -0.0000 </r>
       <r>   13.0100   -0.0000 </r>
       <r>   13.0320   -0.0000 </r>
       <r>   13.0464   -0.0000 </r>
       <r>   13.0668   -0.0000 </r>
       <r>   13.0929   -0.0000 </r>
       <r>   13.1209   -0.0000 </r>
       <r>   13.1553   -0.0000 </r>
       <r>   13.1882   -0.0000 </r>
       <r>   13.4949   -0.0000 </r>
       <r>   13.5913   -0.0000 </r>
       <r>   13.6294    0.0000 </r>
       <r>   13.6492    0.0000 </r>
       <r>   13.6637    0.0000 </r>
       <r>   13.6751    0.0000 </r>
       <r>   13.6886    0.0000 </r>
       <r>   13.7040    0.0000 </r>
       <r>   13.7282    0.0000 </r>
       <r>   13.9457    0.0000 </r>
       <r>   13.9691    0.0000 </r>
       <r>   13.9932    0.0000 </r>
       <r>   14.0042    0.0000 </r>
       <r>   14.4661    0.0000 </r>
       <r>   14.7921    0.0000 </r>
       <r>   14.8036    0.0000 </r>
       <r>   14.8439    0.0000 </r>
       <r>   14.9013    0.0000 </r>
      </set>
      <set comment="kpoint 3">
       <r>   -7.1669    1.0000 </r>
       <r>   -6.6275    1.0000 </r>
       <r>   -5.6521    1.0000 </r>
       <r>   -5.6072    1.0000 </r>
       <r>   -5.5874    1.0000 </r>
       <r>   -5.5579    1.0000 </r>
       <r>   -5.1465    1.0000 </r>
       <r>   -5.1220    1.0000 </r>
       <r>   -5.0983    1.0000 </r>
       <r>   -5.0471    1.0000 </r>
       <r>   -4.5876    1.0000 </r>
       <r>   -4.2875    1.0000 </r>
       <r>   -4.2523    1.0000 </r>
       <r>   -4.2454    1.0000 </r>
       <r>   -4.2253    1.0000 </r>
       <r>   -4.0095    1.0000 </r>
       <r>   -3.9712    1.0000 </r>
       <r>   -3.9223    1.0000 </r>
       <r>   -3.8888    1.0000 </r>
       <r>   -3.4440    1.0000 </r>
       <r>   -3.4112    1.0000 </r>
       <r>   -3.3719    1.0000 </r>
       <r>   -3.3553    1.0000 </r>
       <r>   -3.2122    1.0000 </r>
       <r>   -2.5480    1.0000 </r>
       <r>   -2.5434    1.0000 </r>
       <r>   -2.5178    1.0000 </r>
       <r>   -2.4578    1.0000 </r>
       <r>   -2.3435    1.0000 </r>
       <r>   -2.2928    1.0000 </r>
       <r>   -2.1912    1.0000 </r>
       <r>   -2.1002    1.0000 </r>
       <r>   -0.0717    1.0000 </r>
       <r>   -0.0382    1.0000 </r>
       <r>   -0.0201    1.0000 </r>
       <r>    0.0164    1.0000 </r>
       <r>    0.3420    1.0000 </r>
       <r>    0.3886    1.0000 </r>
       <r>    0.6979    1.0000 </r>
       <r>    0.7593    1.0000 </r>
       <r>    0.9845    1.0000 </r>
       <r>    1.0066    1.0000 </r>
       <r>    1.0382    1.0000 </r>
       <r>    1.0679    1.0000 </r>
       <r>    1.0859    1.0000 </r>
       <r>    1.1080    1.0000 </r>
       <r>    1.1344    1.0000 </r>
       <r>    1.1601    1.0000 </r>
       <r>    1.2409    1.0000 </r>
       <r>    1.3589    1.0000 </r>
       <r>    1.3949    1.0000 </r>
       <r>    1.4406    1.0000 </r>
       <r>    1.4707    1.0000 </r>
       <r>    2.6690    1.0000 </r>
       <r>    2.6902    1.0000 </r>
       <r>    2.7172    1.0000 </r>
       <r>    2.7239    1.0000 </r>
       <r>    2.8924    1.0000 </r>
       <r>    2.9260    1.0000 </r>
       <r>    2.9562    1.0000 </r>
       <r>    2.9707    1.0000 </r>
       <r>    2.9934    1.0000 </r>
       <r>    2.9996    1.0000 </r>
       <r>    3.0279    1.0000 </r>
       <r>    3.0640    1.0000 </r>
       <r>    3.0802    1.0000 </r>
       <r>    3.5156    1.0000 </r>
       <r>    3.5213    1.0000 </r>
       <r>    3.6450    1.0000 </r>
       <r>    3.6509    1.0000 </r>
       <r>    3.9742    1.0000 </r>
       <r>    4.0163    1.0000 </r>
       <r>    4.0600    1.0000 </r>
       <r>    4.0683    1.0000 </r>
       <r>    4.3302    1.0000 </r>
       <r>    4.3588    1.0000 </r>
       <r>    4.3735    1.0000 </r>
       <r>    4.3907    1.0000 </r>
       <r>    4.4067    1.0000 </r>
       <r>    4.4321    1.0000 </r>
       <r>    4.4576    1.0000 </r>
       <r>    4.4969    1.0000 </r>
       <r>    4.6065    1.0000 </r>
       <r>    4.6456    1.0000 </r>
       <r>    4.6504    1.0000 </r>
       <r>    4.6859    1.0000 </r>
       <r>    4.7879    1.0000 </r>
       <r>    4.8060    1.0000 </r>
       <r>    4.8329    1.0000 </r>
       <r>    4.8802    1.0000 </r>
       <r>    4.9800    1.0000 </r>
       <r>    4.9908    1.0000 </r>
       <r>    5.3938    1.0000 </r>
       <r>    5.4152    1.0000 </r>
       <r>    5.5760    1.0000 </r>
       <r>    5.6128    1.0000 </r>
       <r>    5.6231    1.0000 </r>
       <r>    5.6558    1.0000 </r>
       <r>    5.8438    1.0000 </r>
       <r>    5.8767    1.0000 </r>
       <r>    5.9115    1.0000 </r>
       <r>    5.9458    1.0000 </r>
       <r>    6.1771    1.0000 </r>
       <r>    6.2401    1.0000 </r>
       <r>    6.2587    1.0000 </r>
       <r>    6.2757    1.0000 </r>
       <r>    6.3418    1.0000 </r>
       <r>    6.4519    1.0000 </r>
       <r>    6.4590    1.0000 </r>
       <r>    6.5070    1.0000 </r>
       <r>    6.5311    1.0000 </r>
       <r>    6.7400    1.0000 </r>
       <r>    6.7923    1.0000 </r>
       <r>    6.7979    1.0000 </r>
       <r>    6.8263    1.0000 </r>
       <r>    6.8645    1.0000 </r>
       <r>    6.8713    1.0000 </r>
       <r>    6.8929    1.0000 </r>
       <r>    6.9064    1.0000 </r>
       <r>    6.9471    1.0000 </r>
       <r>    6.9515    1.0000 </r>
       <r>    6.9784    1.0000 </r>
       <r>    7.0225    1.0000 </r>
       <r>    7.0541    1.0000 </r>
       <r>    7.0899    1.0000 </r>
       <r>    7.4785    1.0000 </r>
       <r>    7.6937    1.0023 </r>
       <r>    7.6984    1.0025 </r>
       <r>    9.6775   -0.0000 </r>
       <r>   10.1939   -0.0000 </r>
       <r>   10.2009   -0.0000 </r>
       <r>   10.6263   -0.0000 </r>
       <r>   11.9545   -0.0000 </r>
       <r>   11.9668   -0.0000 </r>
       <r>   12.4782   -0.0000 </r>
       <r>   12.5895   -0.0000 </r>
       <r>   12.6319   -0.0000 </r>
       <r>   12.6597   -0.0000 </r>
       <r>   12.6952   -0.0000 </r>
       <r>   12.9144   -0.0000 </r>
       <r>   12.9243   -0.0000 </r>
       <r>   12.9690   -0.0000 </r>
       <r>   12.9978   -0.0000 </r>
       <r>   13.0340   -0.0000 </r>
       <r>   13.0501   -0.0000 </r>
       <r>   13.0843   -0.0000 </r>
       <r>   13.1005   -0.0000 </r>
       <r>   13.1240   -0.0000 </r>
       <r>   13.1665   -0.0000 </r>
       <r>   13.2201   -0.0000 </r>
       <r>   13.4900   -0.0000 </r>
       <r>   13.5594   -0.0000 </r>
       <r>   13.5841   -0.0000 </r>
       <r>   13.6429    0.0000 </r>
       <r>   13.6616    0.0000 </r>
       <r>   13.6792    0.0000 </r>
       <r>   13.6955    0.0000 </r>
       <r>   13.7159    0.0000 </r>
       <r>   13.7424    0.0000 </r>
       <r>   13.9401    0.0000 </r>
       <r>   13.9495    0.0000 </r>
       <r>   14.0056    0.0000 </r>
       <r>   14.0328    0.0000 </r>
       <r>   14.4632    0.0000 </r>
       <r>   14.7917    0.0000 </r>
       <r>   14.8199    0.0000 </r>
       <r>   14.8417    0.0000 </r>
       <r>   14.8956    0.0000 </r>
      </set>
      <set comment="kpoint 4">
       <r>   -7.1670    1.0000 </r>
       <r>   -6.6264    1.0000 </r>
       <r>   -5.6677    1.0000 </r>
       <r>   -5.6151    1.0000 </r>
       <r>   -5.5871    1.0000 </r>
       <r>   -5.5302    1.0000 </r>
       <r>   -5.1748    1.0000 </r>
       <r>   -5.1173    1.0000 </r>
       <r>   -5.0898    1.0000 </r>
       <r>   -5.0349    1.0000 </r>
       <r>   -4.5940    1.0000 </r>
       <r>   -4.3364    1.0000 </r>
       <r>   -4.2488    1.0000 </r>
       <r>   -4.2085    1.0000 </r>
       <r>   -4.1967    1.0000 </r>
       <r>   -4.0017    1.0000 </r>
       <r>   -3.9486    1.0000 </r>
       <r>   -3.9422    1.0000 </r>
       <r>   -3.9159    1.0000 </r>
       <r>   -3.4752    1.0000 </r>
       <r>   -3.4078    1.0000 </r>
       <r>   -3.3690    1.0000 </r>
       <r>   -3.3173    1.0000 </r>
       <r>   -3.2173    1.0000 </r>
       <r>   -2.5907    1.0000 </r>
       <r>   -2.5353    1.0000 </r>
       <r>   -2.5050    1.0000 </r>
       <r>   -2.4429    1.0000 </r>
       <r>   -2.3638    1.0000 </r>
       <r>   -2.2759    1.0000 </r>
       <r>   -2.1771    1.0000 </r>
       <r>   -2.1137    1.0000 </r>
       <r>   -0.0849    1.0000 </r>
       <r>   -0.0371    1.0000 </r>
       <r>   -0.0141    1.0000 </r>
       <r>    0.0202    1.0000 </r>
       <r>    0.3571    1.0000 </r>
       <r>    0.3685    1.0000 </r>
       <r>    0.7190    1.0000 </r>
       <r>    0.7372    1.0000 </r>
       <r>    0.9839    1.0000 </r>
       <r>    1.0103    1.0000 </r>
       <r>    1.0493    1.0000 </r>
       <r>    1.0599    1.0000 </r>
       <r>    1.0911    1.0000 </r>
       <r>    1.1140    1.0000 </r>
       <r>    1.1258    1.0000 </r>
       <r>    1.1765    1.0000 </r>
       <r>    1.2481    1.0000 </r>
       <r>    1.3684    1.0000 </r>
       <r>    1.3857    1.0000 </r>
       <r>    1.4281    1.0000 </r>
       <r>    1.4626    1.0000 </r>
       <r>    2.6712    1.0000 </r>
       <r>    2.6817    1.0000 </r>
       <r>    2.7161    1.0000 </r>
       <r>    2.7313    1.0000 </r>
       <r>    2.9068    1.0000 </r>
       <r>    2.9155    1.0000 </r>
       <r>    2.9477    1.0000 </r>
       <r>    2.9674    1.0000 </r>
       <r>    2.9931    1.0000 </r>
       <r>    2.9995    1.0000 </r>
       <r>    3.0249    1.0000 </r>
       <r>    3.0589    1.0000 </r>
       <r>    3.0943    1.0000 </r>
       <r>    3.5164    1.0000 </r>
       <r>    3.5225    1.0000 </r>
       <r>    3.6438    1.0000 </r>
       <r>    3.6578    1.0000 </r>
       <r>    3.9627    1.0000 </r>
       <r>    4.0007    1.0000 </r>
       <r>    4.0473    1.0000 </r>
       <r>    4.0901    1.0000 </r>
       <r>    4.3254    1.0000 </r>
       <r>    4.3431    1.0000 </r>
       <r>    4.3774    1.0000 </r>
       <r>    4.4022    1.0000 </r>
       <r>    4.4142    1.0000 </r>
       <r>    4.4345    1.0000 </r>
       <r>    4.4574    1.0000 </r>
       <r>    4.4935    1.0000 </r>
       <r>    4.6106    1.0000 </r>
       <r>    4.6323    1.0000 </r>
       <r>    4.6581    1.0000 </r>
       <r>    4.6903    1.0000 </r>
       <r>    4.7777    1.0000 </r>
       <r>    4.8232    1.0000 </r>
       <r>    4.8375    1.0000 </r>
       <r>    4.8824    1.0000 </r>
       <r>    4.9778    1.0000 </r>
       <r>    4.9896    1.0000 </r>
       <r>    5.4011    1.0000 </r>
       <r>    5.4198    1.0000 </r>
       <r>    5.5904    1.0000 </r>
       <r>    5.6031    1.0000 </r>
       <r>    5.6193    1.0000 </r>
       <r>    5.6481    1.0000 </r>
       <r>    5.8466    1.0000 </r>
       <r>    5.8555    1.0000 </r>
       <r>    5.9140    1.0000 </r>
       <r>    5.9431    1.0000 </r>
       <r>    6.1515    1.0000 </r>
       <r>    6.2291    1.0000 </r>
       <r>    6.2716    1.0000 </r>
       <r>    6.3119    1.0000 </r>
       <r>    6.3456    1.0000 </r>
       <r>    6.4255    1.0000 </r>
       <r>    6.4579    1.0000 </r>
       <r>    6.5045    1.0000 </r>
       <r>    6.5693    1.0000 </r>
       <r>    6.7319    1.0000 </r>
       <r>    6.7631    1.0000 </r>
       <r>    6.8117    1.0000 </r>
       <r>    6.8273    1.0000 </r>
       <r>    6.8397    1.0000 </r>
       <r>    6.8838    1.0000 </r>
       <r>    6.8982    1.0000 </r>
       <r>    6.9216    1.0000 </r>
       <r>    6.9402    1.0000 </r>
       <r>    6.9742    1.0000 </r>
       <r>    6.9834    1.0000 </r>
       <r>    7.0104    1.0000 </r>
       <r>    7.0447    1.0000 </r>
       <r>    7.0890    1.0000 </r>
       <r>    7.4750    1.0000 </r>
       <r>    7.6957    1.0024 </r>
       <r>    7.7021    1.0027 </r>
       <r>    9.6727   -0.0000 </r>
       <r>   10.1848   -0.0000 </r>
       <r>   10.2114   -0.0000 </r>
       <r>   10.6258   -0.0000 </r>
       <r>   11.9554   -0.0000 </r>
       <r>   11.9789   -0.0000 </r>
       <r>   12.4727   -0.0000 </r>
       <r>   12.5894   -0.0000 </r>
       <r>   12.6157   -0.0000 </r>
       <r>   12.6541   -0.0000 </r>
       <r>   12.6808   -0.0000 </r>
       <r>   12.8932   -0.0000 </r>
       <r>   12.9060   -0.0000 </r>
       <r>   12.9720   -0.0000 </r>
       <r>   13.0195   -0.0000 </r>
       <r>   13.0417   -0.0000 </r>
       <r>   13.0579   -0.0000 </r>
       <r>   13.0833   -0.0000 </r>
       <r>   13.0958   -0.0000 </r>
       <r>   13.1385   -0.0000 </r>
       <r>   13.1926   -0.0000 </r>
       <r>   13.2083   -0.0000 </r>
       <r>   13.4870   -0.0000 </r>
       <r>   13.5584   -0.0000 </r>
       <r>   13.5999   -0.0000 </r>
       <r>   13.6423    0.0000 </r>
       <r>   13.6548    0.0000 </r>
       <r>   13.6824    0.0000 </r>
       <r>   13.6977    0.0000 </r>
       <r>   13.7163    0.0000 </r>
       <r>   13.7484    0.0000 </r>
       <r>   13.9396    0.0000 </r>
       <r>   13.9680    0.0000 </r>
       <r>   13.9848    0.0000 </r>
       <r>   14.0231    0.0000 </r>
       <r>   14.4649    0.0000 </r>
       <r>   14.7921    0.0000 </r>
       <r>   14.8161    0.0000 </r>
       <r>   14.8519    0.0000 </r>
       <r>   14.9103    0.0000 </r>
      </set>
      <set comment="kpoint 5">
       <r>   -6.9893    1.0000 </r>
       <r>   -6.4826    1.0000 </r>
       <r>   -6.4301    1.0000 </r>
       <r>   -5.9403    1.0000 </r>
       <r>   -5.4528    1.0000 </r>
       <r>   -5.4253    1.0000 </r>
       <r>   -5.0230    1.0000 </r>
       <r>   -4.9981    1.0000 </r>
       <r>   -4.9205    1.0000 </r>
       <r>   -4.9051    1.0000 </r>
       <r>   -4.5614    1.0000 </r>
       <r>   -4.5316    1.0000 </r>
       <r>   -4.4560    1.0000 </r>
       <r>   -4.4082    1.0000 </r>
       <r>   -4.0377    1.0000 </r>
       <r>   -4.0162    1.0000 </r>
       <r>   -3.5493    1.0000 </r>
       <r>   -3.5317    1.0000 </r>
       <r>   -3.4285    1.0000 </r>
       <r>   -3.4105    1.0000 </r>
       <r>   -3.3422    1.0000 </r>
       <r>   -3.3146    1.0000 </r>
       <r>   -3.1560    1.0000 </r>
       <r>   -3.1215    1.0000 </r>
       <r>   -2.8844    1.0000 </r>
       <r>   -2.8123    1.0000 </r>
       <r>   -2.7388    1.0000 </r>
       <r>   -2.7022    1.0000 </r>
       <r>   -2.6714    1.0000 </r>
       <r>   -2.3643    1.0000 </r>
       <r>   -2.2938    1.0000 </r>
       <r>   -2.2225    1.0000 </r>
       <r>   -0.1933    1.0000 </r>
       <r>   -0.1430    1.0000 </r>
       <r>    0.4512    1.0000 </r>
       <r>    0.5006    1.0000 </r>
       <r>    0.5162    1.0000 </r>
       <r>    0.5572    1.0000 </r>
       <r>    0.5955    1.0000 </r>
       <r>    0.6349    1.0000 </r>
       <r>    0.6903    1.0000 </r>
       <r>    0.7947    1.0000 </r>
       <r>    0.8145    1.0000 </r>
       <r>    0.8242    1.0000 </r>
       <r>    0.8580    1.0000 </r>
       <r>    0.9864    1.0000 </r>
       <r>    1.1692    1.0000 </r>
       <r>    1.2362    1.0000 </r>
       <r>    1.2582    1.0000 </r>
       <r>    1.3013    1.0000 </r>
       <r>    1.9743    1.0000 </r>
       <r>    2.0333    1.0000 </r>
       <r>    2.0533    1.0000 </r>
       <r>    2.0855    1.0000 </r>
       <r>    2.0967    1.0000 </r>
       <r>    2.1231    1.0000 </r>
       <r>    2.4088    1.0000 </r>
       <r>    2.5706    1.0000 </r>
       <r>    2.6053    1.0000 </r>
       <r>    2.6427    1.0000 </r>
       <r>    2.7416    1.0000 </r>
       <r>    3.1961    1.0000 </r>
       <r>    3.2389    1.0000 </r>
       <r>    3.2858    1.0000 </r>
       <r>    3.3095    1.0000 </r>
       <r>    3.3325    1.0000 </r>
       <r>    3.4927    1.0000 </r>
       <r>    3.5425    1.0000 </r>
       <r>    3.9040    1.0000 </r>
       <r>    3.9140    1.0000 </r>
       <r>    4.0120    1.0000 </r>
       <r>    4.0317    1.0000 </r>
       <r>    4.0623    1.0000 </r>
       <r>    4.0916    1.0000 </r>
       <r>    4.1095    1.0000 </r>
       <r>    4.2960    1.0000 </r>
       <r>    4.3411    1.0000 </r>
       <r>    4.4742    1.0000 </r>
       <r>    4.4929    1.0000 </r>
       <r>    4.6604    1.0000 </r>
       <r>    4.6757    1.0000 </r>
       <r>    4.8647    1.0000 </r>
       <r>    4.8768    1.0000 </r>
       <r>    4.8890    1.0000 </r>
       <r>    4.9220    1.0000 </r>
       <r>    4.9508    1.0000 </r>
       <r>    4.9813    1.0000 </r>
       <r>    5.0878    1.0000 </r>
       <r>    5.2808    1.0000 </r>
       <r>    5.3075    1.0000 </r>
       <r>    5.3976    1.0000 </r>
       <r>    5.4097    1.0000 </r>
       <r>    5.4339    1.0000 </r>
       <r>    5.4575    1.0000 </r>
       <r>    5.5232    1.0000 </r>
       <r>    5.5395    1.0000 </r>
       <r>    5.5678    1.0000 </r>
       <r>    5.6148    1.0000 </r>
       <r>    5.6399    1.0000 </r>
       <r>    5.6570    1.0000 </r>
       <r>    5.6927    1.0000 </r>
       <r>    5.8391    1.0000 </r>
       <r>    5.9621    1.0000 </r>
       <r>    6.0037    1.0000 </r>
       <r>    6.0281    1.0000 </r>
       <r>    6.0784    1.0000 </r>
       <r>    6.1875    1.0000 </r>
       <r>    6.2296    1.0000 </r>
       <r>    6.2709    1.0000 </r>
       <r>    6.2952    1.0000 </r>
       <r>    6.3944    1.0000 </r>
       <r>    6.4460    1.0000 </r>
       <r>    6.4833    1.0000 </r>
       <r>    6.5054    1.0000 </r>
       <r>    6.5669    1.0000 </r>
       <r>    6.6458    1.0000 </r>
       <r>    6.6718    1.0000 </r>
       <r>    6.7150    1.0000 </r>
       <r>    6.7481    1.0000 </r>
       <r>    6.8334    1.0000 </r>
       <r>    6.8808    1.0000 </r>
       <r>    6.9106    1.0000 </r>
       <r>    6.9459    1.0000 </r>
       <r>    7.3178    1.0000 </r>
       <r>    7.4312    1.0000 </r>
       <r>    7.5688    1.0001 </r>
       <r>    7.6532    1.0010 </r>
       <r>    7.9804    1.0124 </r>
       <r>   10.4138   -0.0000 </r>
       <r>   10.4696   -0.0000 </r>
       <r>   10.5094   -0.0000 </r>
       <r>   11.3109   -0.0000 </r>
       <r>   11.3404   -0.0000 </r>
       <r>   11.6113   -0.0000 </r>
       <r>   11.6834   -0.0000 </r>
       <r>   11.8140   -0.0000 </r>
       <r>   12.1752   -0.0000 </r>
       <r>   12.2090   -0.0000 </r>
       <r>   12.7985   -0.0000 </r>
       <r>   12.8607   -0.0000 </r>
       <r>   12.8791   -0.0000 </r>
       <r>   12.8944   -0.0000 </r>
       <r>   13.0198   -0.0000 </r>
       <r>   13.0770   -0.0000 </r>
       <r>   13.1221   -0.0000 </r>
       <r>   13.1566   -0.0000 </r>
       <r>   13.1818   -0.0000 </r>
       <r>   13.2303   -0.0000 </r>
       <r>   13.2700   -0.0000 </r>
       <r>   13.2981   -0.0000 </r>
       <r>   13.5385   -0.0000 </r>
       <r>   13.5651   -0.0000 </r>
       <r>   13.6029   -0.0000 </r>
       <r>   13.6205   -0.0000 </r>
       <r>   13.6921    0.0000 </r>
       <r>   13.7023    0.0000 </r>
       <r>   13.7883    0.0000 </r>
       <r>   13.8001    0.0000 </r>
       <r>   13.8845    0.0000 </r>
       <r>   13.9134    0.0000 </r>
       <r>   13.9909    0.0000 </r>
       <r>   14.0876    0.0000 </r>
       <r>   14.1083    0.0000 </r>
       <r>   14.6584    0.0000 </r>
       <r>   14.7188    0.0000 </r>
       <r>   14.7525    0.0000 </r>
       <r>   14.9273    0.0000 </r>
       <r>   15.0321    0.0000 </r>
      </set>
      <set comment="kpoint 6">
       <r>   -6.9913    1.0000 </r>
       <r>   -6.4704    1.0000 </r>
       <r>   -6.4399    1.0000 </r>
       <r>   -5.9328    1.0000 </r>
       <r>   -5.4717    1.0000 </r>
       <r>   -5.4161    1.0000 </r>
       <r>   -5.0092    1.0000 </r>
       <r>   -4.9842    1.0000 </r>
       <r>   -4.9528    1.0000 </r>
       <r>   -4.9039    1.0000 </r>
       <r>   -4.5744    1.0000 </r>
       <r>   -4.5274    1.0000 </r>
       <r>   -4.4560    1.0000 </r>
       <r>   -4.4172    1.0000 </r>
       <r>   -4.0242    1.0000 </r>
       <r>   -3.9883    1.0000 </r>
       <r>   -3.5785    1.0000 </r>
       <r>   -3.5193    1.0000 </r>
       <r>   -3.4245    1.0000 </r>
       <r>   -3.4084    1.0000 </r>
       <r>   -3.3698    1.0000 </r>
       <r>   -3.3011    1.0000 </r>
       <r>   -3.1428    1.0000 </r>
       <r>   -3.1040    1.0000 </r>
       <r>   -2.8612    1.0000 </r>
       <r>   -2.8435    1.0000 </r>
       <r>   -2.7568    1.0000 </r>
       <r>   -2.7138    1.0000 </r>
       <r>   -2.6617    1.0000 </r>
       <r>   -2.3571    1.0000 </r>
       <r>   -2.3265    1.0000 </r>
       <r>   -2.1903    1.0000 </r>
       <r>   -0.2169    1.0000 </r>
       <r>   -0.1715    1.0000 </r>
       <r>    0.4698    1.0000 </r>
       <r>    0.5154    1.0000 </r>
       <r>    0.5500    1.0000 </r>
       <r>    0.5675    1.0000 </r>
       <r>    0.5945    1.0000 </r>
       <r>    0.6409    1.0000 </r>
       <r>    0.6669    1.0000 </r>
       <r>    0.7828    1.0000 </r>
       <r>    0.7982    1.0000 </r>
       <r>    0.8319    1.0000 </r>
       <r>    0.8943    1.0000 </r>
       <r>    1.0029    1.0000 </r>
       <r>    1.1997    1.0000 </r>
       <r>    1.2195    1.0000 </r>
       <r>    1.2703    1.0000 </r>
       <r>    1.2912    1.0000 </r>
       <r>    1.9737    1.0000 </r>
       <r>    1.9920    1.0000 </r>
       <r>    2.0255    1.0000 </r>
       <r>    2.0705    1.0000 </r>
       <r>    2.0843    1.0000 </r>
       <r>    2.1124    1.0000 </r>
       <r>    2.4074    1.0000 </r>
       <r>    2.5600    1.0000 </r>
       <r>    2.5641    1.0000 </r>
       <r>    2.6958    1.0000 </r>
       <r>    2.7383    1.0000 </r>
       <r>    3.2219    1.0000 </r>
[...]
      </set>
     </set>
    </set>
   </array>
  </eigenvalues>
  <separator name="orbital magnetization" >
   <v name="MAGDIPOLOUT">      0.00000000      0.00000000      0.00000000</v>
  </separator>
  <dos>
   <i name="efermi">      8.16157577 </i>
   <total>
    <array>
     <dimension dim="1">gridpoints</dimension>
     <dimension dim="2">spin</dimension>
     <field>energy</field>
     <field>total</field>
     <field>integrated</field>
     <set>
      <set comment="spin 1">
       <r>    -9.3441     0.0000     0.0000 </r>
       <r>    -9.2547     0.0000     0.0000 </r>
       <r>    -9.1652     0.0000     0.0000 </r>
       <r>    -9.0758     0.0000     0.0000 </r>
       <r>    -8.9864    -0.0000    -0.0000 </r>
       <r>    -8.8970    -0.0000    -0.0000 </r>
       <r>    -8.8076    -0.0000    -0.0000 </r>
       <r>    -8.7182    -0.0000    -0.0000 </r>
       <r>    -8.6287    -0.0000    -0.0000 </r>
       <r>    -8.5393    -0.0000    -0.0000 </r>
       <r>    -8.4499    -0.0000    -0.0000 </r>
       <r>    -8.3605    -0.0000    -0.0000 </r>
       <r>    -8.2711    -0.0000    -0.0000 </r>
       <r>    -8.1816    -0.0000    -0.0000 </r>
       <r>    -8.0922    -0.0000    -0.0000 </r>
       <r>    -8.0028    -0.0000    -0.0000 </r>
       <r>    -7.9134    -0.0002    -0.0000 </r>
       <r>    -7.8240    -0.0014    -0.0001 </r>
       <r>    -7.7345    -0.0072    -0.0008 </r>
       <r>    -7.6451    -0.0232    -0.0029 </r>
       <r>    -7.5557    -0.0423    -0.0066 </r>
       <r>    -7.4663    -0.0202    -0.0084 </r>
       <r>    -7.3769     0.1482     0.0048 </r>
       <r>    -7.2875     0.6407     0.0621 </r>
       <r>    -7.1980     1.5781     0.2032 </r>
       <r>    -7.1086     2.8488     0.4579 </r>
       <r>    -7.0192     4.0719     0.8221 </r>
       <r>    -6.9298     4.5882     1.2323 </r>
       <r>    -6.8404     4.0607     1.5954 </r>
       <r>    -6.7509     3.0449     1.8677 </r>
       <r>    -6.6615     2.6610     2.1056 </r>
       <r>    -6.5721     4.0722     2.4698 </r>
       <r>    -6.4827     7.1993     3.1135 </r>
       <r>    -6.3933    10.0094     4.0086 </r>
       <r>    -6.3038    10.3343     4.9326 </r>
       <r>    -6.2144     7.6553     5.6172 </r>
       <r>    -6.1250     3.7088     5.9488 </r>
       <r>    -6.0356     1.8143     6.1110 </r>
       <r>    -5.9462     3.5399     6.4276 </r>
       <r>    -5.8568     7.2579     7.0766 </r>
       <r>    -5.7673    10.4923     8.0148 </r>
       <r>    -5.6779    11.8512     9.0745 </r>
       <r>    -5.5885    11.7339    10.1237 </r>
       <r>    -5.4991    11.2208    11.1271 </r>
       <r>    -5.4097     9.9576    12.0175 </r>
       <r>    -5.3202     7.4934    12.6875 </r>
       <r>    -5.2308     5.9942    13.2235 </r>
       <r>    -5.1414     8.3686    13.9718 </r>
       <r>    -5.0520    13.8082    15.2065 </r>
       <r>    -4.9626    17.0017    16.7268 </r>
       <r>    -4.8731    13.5509    17.9385 </r>
       <r>    -4.7837     6.2366    18.4962 </r>
       <r>    -4.6943     2.5522    18.7244 </r>
       <r>    -4.6049     5.9000    19.2520 </r>
       <r>    -4.5155    12.7672    20.3936 </r>
       <r>    -4.4260    18.2501    22.0255 </r>
       <r>    -4.3366    20.1288    23.8254 </r>
       <r>    -4.2472    17.8318    25.4199 </r>
       <r>    -4.1578    14.1362    26.6840 </r>
       <r>    -4.0684    15.6117    28.0799 </r>
       <r>    -3.9790    22.3303    30.0767 </r>
       <r>    -3.8895    24.4318    32.2613 </r>
       <r>    -3.8001    17.7854    33.8517 </r>
       <r>    -3.7107    10.8768    34.8243 </r>
       <r>    -3.6213    10.9704    35.8052 </r>
       <r>    -3.5319    16.1854    37.2525 </r>
       <r>    -3.4424    21.5103    39.1759 </r>
       <r>    -3.3530    22.8953    41.2232 </r>
       <r>    -3.2636    19.8125    42.9948 </r>
       <r>    -3.1742    17.1016    44.5240 </r>
       <r>    -3.0848    17.5621    46.0944 </r>
       <r>    -2.9953    19.1179    47.8039 </r>
       <r>    -2.9059    21.9644    49.7679 </r>
       <r>    -2.8165    26.2996    52.1196 </r>
       <r>    -2.7271    27.2590    54.5571 </r>
       <r>    -2.6377    21.7775    56.5044 </r>
       <r>    -2.5483    14.2058    57.7747 </r>
       <r>    -2.4588    10.7231    58.7335 </r>
       <r>    -2.3694    12.4833    59.8498 </r>
       <r>    -2.2800    15.4914    61.2350 </r>
       <r>    -2.1906    15.1256    62.5875 </r>
       <r>    -2.1012    10.5764    63.5332 </r>
       <r>    -2.0117     4.8685    63.9686 </r>
       <r>    -1.9223     1.0858    64.0657 </r>
       <r>    -1.8329    -0.2444    64.0438 </r>
       <r>    -1.7435    -0.3106    64.0160 </r>
       <r>    -1.6541    -0.1350    64.0040 </r>
       <r>    -1.5646    -0.0366    64.0007 </r>
       <r>    -1.4752    -0.0068    64.0001 </r>
       <r>    -1.3858    -0.0009    64.0000 </r>
       <r>    -1.2964    -0.0001    64.0000 </r>
       <r>    -1.2070    -0.0000    64.0000 </r>
       <r>    -1.1176    -0.0002    64.0000 </r>
       <r>    -1.0281    -0.0018    63.9998 </r>
       <r>    -0.9387    -0.0110    63.9988 </r>
       <r>    -0.8493    -0.0381    63.9954 </r>
       <r>    -0.7599    -0.0560    63.9904 </r>
       <r>    -0.6705     0.0723    63.9969 </r>
       <r>    -0.5810     0.4371    64.0360 </r>
       <r>    -0.4916     0.7155    64.1000 </r>
       <r>    -0.4022     0.7411    64.1662 </r>
       <r>    -0.3128     1.8153    64.3285 </r>
       <r>    -0.2234     5.3820    64.8098 </r>
       <r>    -0.1339     9.6917    65.6764 </r>
       <r>    -0.0445    10.9258    66.6534 </r>
       <r>     0.0449     8.3660    67.4015 </r>
       <r>     0.1343     6.0220    67.9400 </r>
       <r>     0.2237     7.9395    68.6499 </r>
       <r>     0.3132    13.4093    69.8489 </r>
       <r>     0.4026    19.1684    71.5630 </r>
       <r>     0.4920    23.0625    73.6252 </r>
       <r>     0.5814    24.3108    75.7990 </r>
       <r>     0.6708    24.9320    78.0284 </r>
       <r>     0.7602    28.3199    80.5607 </r>
       <r>     0.8497    32.4140    83.4592 </r>
       <r>     0.9391    31.7501    86.2982 </r>
       <r>     1.0285    28.3796    88.8359 </r>
       <r>     1.1179    29.7040    91.4920 </r>
       <r>     1.2073    35.8902    94.7013 </r>
       <r>     1.2968    38.4134    98.1361 </r>
       <r>     1.3862    30.8916   100.8984 </r>
       <r>     1.4756    16.9202   102.4114 </r>
       <r>     1.5650     5.0573   102.8636 </r>
       <r>     1.6544    -0.5120   102.8178 </r>
       <r>     1.7439    -1.0794   102.7213 </r>
       <r>     1.8333     1.6836   102.8719 </r>
       <r>     1.9227     8.4478   103.6273 </r>
       <r>     2.0121    18.6324   105.2934 </r>
       <r>     2.1015    25.8702   107.6066 </r>
       <r>     2.1909    23.5645   109.7138 </r>
       <r>     2.2804    14.4088   111.0022 </r>
       <r>     2.3698     6.8349   111.6133 </r>
       <r>     2.4592     5.4114   112.0972 </r>
       <r>     2.5486     9.7709   112.9709 </r>
       <r>     2.6380    16.0760   114.4084 </r>
       <r>     2.7275    18.0254   116.0202 </r>
       <r>     2.8169    14.4547   117.3128 </r>
       <r>     2.9063    12.4010   118.4216 </r>
       <r>     2.9957    15.9085   119.8442 </r>
       <r>     3.0851    21.3011   121.7489 </r>
       <r>     3.1746    26.5964   124.1271 </r>
       <r>     3.2640    32.0530   126.9933 </r>
       <r>     3.3534    33.4891   129.9878 </r>
       <r>     3.4428    29.5105   132.6266 </r>
       <r>     3.5322    25.9381   134.9460 </r>
       <r>     3.6216    23.9488   137.0874 </r>
       <r>     3.7111    19.2796   138.8114 </r>
       <r>     3.8005    13.3983   140.0095 </r>
       <r>     3.8899    13.4464   141.2118 </r>
       <r>     3.9793    20.6425   143.0577 </r>
       <r>     4.0687    25.5511   145.3424 </r>
       <r>     4.1582    21.7707   147.2891 </r>
       <r>     4.2476    17.6448   148.8669 </r>
       <r>     4.3370    22.5963   150.8874 </r>
       <r>     4.4264    31.8163   153.7324 </r>
       <r>     4.5158    36.6513   157.0097 </r>
       <r>     4.6053    36.2335   160.2497 </r>
       <r>     4.6947    33.6364   163.2574 </r>
       <r>     4.7841    33.0323   166.2111 </r>
       <r>     4.8735    35.7567   169.4085 </r>
       <r>     4.9629    36.4206   172.6651 </r>
       <r>     5.0524    32.6600   175.5856 </r>
       <r>     5.1418    29.7075   178.2420 </r>
       <r>     5.2312    30.1922   180.9417 </r>
       <r>     5.3206    31.0201   183.7155 </r>
       <r>     5.4100    30.9167   186.4800 </r>
       <r>     5.4994    33.5582   189.4808 </r>
       <r>     5.5889    39.8248   193.0419 </r>
       <r>     5.6783    42.6507   196.8556 </r>
       <r>     5.7677    38.6793   200.3143 </r>
       <r>     5.8571    34.9249   203.4373 </r>
       <r>     5.9465    34.3919   206.5125 </r>
       <r>     6.0360    31.8679   209.3621 </r>
       <r>     6.1254    27.8191   211.8497 </r>
       <r>     6.2148    28.5486   214.4025 </r>
       <r>     6.3042    33.0735   217.3599 </r>
       <r>     6.3936    35.6636   220.5489 </r>
       <r>     6.4831    34.7285   223.6543 </r>
       <r>     6.5725    30.6879   226.3983 </r>
       <r>     6.6619    26.6920   228.7851 </r>
       <r>     6.7513    28.2210   231.3086 </r>
       <r>     6.8407    35.4036   234.4743 </r>
       <r>     6.9301    40.9841   238.1391 </r>
       <r>     7.0196    37.2380   241.4689 </r>
       <r>     7.1090    25.4001   243.7401 </r>
       <r>     7.1984    14.7512   245.0592 </r>
       <r>     7.2878    11.4894   246.0865 </r>
       <r>     7.3772    14.2545   247.3611 </r>
       <r>     7.4667    18.6532   249.0291 </r>
       <r>     7.5561    21.0604   250.9123 </r>
       <r>     7.6455    19.7784   252.6809 </r>
       <r>     7.7349    15.0165   254.0236 </r>
       <r>     7.8243     8.8394   254.8140 </r>
       <r>     7.9138     4.7981   255.2431 </r>
       <r>     8.0032     3.8671   255.5889 </r>
       <r>     8.0926     3.2399   255.8786 </r>
       <r>     8.1820     1.5562   256.0177 </r>
       <r>     8.2714     0.1709   256.0330 </r>
       <r>     8.3608    -0.2069   256.0145 </r>
       <r>     8.4503    -0.1224   256.0035 </r>
       <r>     8.5397    -0.0335   256.0005 </r>
       <r>     8.6291    -0.0055   256.0001 </r>
       <r>     8.7185    -0.0007   256.0000 </r>
       <r>     8.8079    -0.0011   255.9999 </r>
       <r>     8.8974    -0.0066   255.9993 </r>
       <r>     8.9868    -0.0250   255.9971 </r>
       <r>     9.0762    -0.0427   255.9933 </r>
       <r>     9.1656     0.0396   255.9968 </r>
       <r>     9.2550     0.3416   256.0273 </r>
       <r>     9.3445     0.7011   256.0900 </r>
       <r>     9.4339     0.7729   256.1592 </r>
       <r>     9.5233     0.7711   256.2281 </r>
       <r>     9.6127     1.2407   256.3391 </r>
       <r>     9.7021     1.7587   256.4963 </r>
       <r>     9.7916     1.3971   256.6212 </r>
       <r>     9.8810     0.4042   256.6574 </r>
       <r>     9.9704    -0.1314   256.6456 </r>
       <r>    10.0598     0.4833   256.6889 </r>
       <r>    10.1492     2.0180   256.8693 </r>
       <r>    10.2386     3.5330   257.1852 </r>
       <r>    10.3281     5.2752   257.6569 </r>
       <r>    10.4175     8.2802   258.3973 </r>
       <r>    10.5069    11.0464   259.3851 </r>
       <r>    10.5963    11.6292   260.4250 </r>
       <r>    10.6857    10.5746   261.3705 </r>
       <r>    10.7752     8.0126   262.0870 </r>
       <r>    10.8646     3.9810   262.4430 </r>
       <r>    10.9540     0.5799   262.4948 </r>
       <r>    11.0434    -0.7585   262.4270 </r>
       <r>    11.1328    -0.2564   262.4041 </r>
       <r>    11.2223     2.1223   262.5939 </r>
       <r>    11.3117     5.5861   263.0934 </r>
       <r>    11.4011     8.0127   263.8099 </r>
       <r>    11.4905     9.5197   264.6611 </r>
       <r>    11.5799    11.4912   265.6886 </r>
       <r>    11.6693    12.9097   266.8430 </r>
       <r>    11.7588    14.0891   268.1028 </r>
       <r>    11.8482    17.3421   269.6535 </r>
       <r>    11.9376    20.9093   271.5232 </r>
       <r>    12.0270    21.2469   273.4231 </r>
       <r>    12.1164    18.5430   275.0812 </r>
       <r>    12.2059    13.9262   276.3264 </r>
       <r>    12.2953     7.7967   277.0236 </r>
       <r>    12.3847     3.1782   277.3078 </r>
       <r>    12.4741     4.4787   277.7083 </r>
       <r>    12.5635    11.9407   278.7760 </r>
       <r>    12.6530    20.3738   280.5978 </r>
       <r>    12.7424    25.4721   282.8755 </r>
       <r>    12.8318    28.1388   285.3916 </r>
       <r>    12.9212    29.8516   288.0609 </r>
       <r>    13.0106    31.4302   290.8714 </r>
       <r>    13.1000    33.9384   293.9061 </r>
       <r>    13.1895    33.9410   296.9411 </r>
       <r>    13.2789    26.7971   299.3373 </r>
       <r>    13.3683    16.5276   300.8151 </r>
       <r>    13.4577    14.0211   302.0689 </r>
       <r>    13.5471    23.0709   304.1319 </r>
       <r>    13.6366    33.8001   307.1542 </r>
       <r>    13.7260    35.4077   310.3203 </r>
       <r>    13.8154    29.6767   312.9740 </r>
       <r>    13.9048    26.3383   315.3291 </r>
       <r>    13.9942    29.3158   317.9505 </r>
       <r>    14.0837    32.5451   320.8607 </r>
       <r>    14.1731    29.4555   323.4945 </r>
       <r>    14.2625    20.4365   325.3219 </r>
       <r>    14.3519    10.1820   326.2324 </r>
       <r>    14.4413     3.4019   326.5366 </r>
       <r>    14.5308     3.0270   326.8073 </r>
       <r>    14.6202     9.3070   327.6395 </r>
       <r>    14.7096    17.9076   329.2408 </r>
       <r>    14.7990    21.6933   331.1806 </r>
       <r>    14.8884    18.6552   332.8487 </r>
       <r>    14.9778    12.7497   333.9888 </r>
       <r>    15.0673     6.9910   334.6139 </r>
       <r>    15.1567     2.4356   334.8317 </r>
       <r>    15.2461     0.4951   334.8760 </r>
       <r>    15.3355     1.6851   335.0266 </r>
       <r>    15.4249     3.9633   335.3810 </r>
       <r>    15.5144     4.3481   335.7698 </r>
       <r>    15.6038     2.4670   335.9904 </r>
       <r>    15.6932     0.5225   336.0372 </r>
       <r>    15.7826    -0.1902   336.0201 </r>
       <r>    15.8720    -0.1637   336.0055 </r>
       <r>    15.9615    -0.0513   336.0009 </r>
       <r>    16.0509    -0.0091   336.0001 </r>
       <r>    16.1403    -0.0010   336.0000 </r>
       <r>    16.2297    -0.0001   336.0000 </r>
       <r>    16.3191    -0.0000   336.0000 </r>
       <r>    16.4085    -0.0000   336.0000 </r>
       <r>    16.4980    -0.0000   336.0000 </r>
       <r>    16.5874    -0.0000   336.0000 </r>
       <r>    16.6768    -0.0000   336.0000 </r>
       <r>    16.7662    -0.0000   336.0000 </r>
       <r>    16.8556     0.0000   336.0000 </r>
       <r>    16.9451     0.0000   336.0000 </r>
       <r>    17.0345     0.0000   336.0000 </r>
       <r>    17.1239     0.0000   336.0000 </r>
       <r>    17.2133     0.0000   336.0000 </r>
       <r>    17.3027     0.0000   336.0000 </r>
       <r>    17.3922     0.0000   336.0000 </r>
       <r>    17.4816     0.0000   336.0000 </r>
      </set>
     </set>
    </array>
   </total>
  </dos>
 </calculation>
 <structure name="finalpos" >
  <crystal>
   <varray name="basis" >
    <v>       8.74331558       0.00000000       0.00000000 </v>
    <v>       0.00000000       8.74331558       0.00000000 </v>
    <v>       0.00000000       0.00000000       8.74331558 </v>
   </varray>
   <i name="volume">    668.38771987 </i>
   <varray name="rec_basis" >
    <v>       0.11437309       0.00000000       0.00000000 </v>
    <v>       0.00000000       0.11437309       0.00000000 </v>
    <v>       0.00000000       0.00000000       0.11437309 </v>
   </varray>
  </crystal>
  <varray name="positions" >
   <v>       0.12186308       0.12589107       0.12199427 </v>
   <v>       0.12811835       0.37681886       0.37592970 </v>
   <v>       0.37907525       0.12652063       0.37857251 </v>
   <v>       0.37473830       0.37374704       0.12489188 </v>
   <v>       0.12555771       0.12052329       0.62901025 </v>
   <v>       0.12473555       0.37622498       0.87361731 </v>
   <v>       0.37488997       0.12182592       0.87546763 </v>
   <v>       0.37482393       0.37232028       0.62455181 </v>
   <v>       0.12423673       0.62534697       0.12517231 </v>
   <v>       0.12557272       0.87276648       0.37978642 </v>
   <v>       0.37242093       0.62094309       0.37172335 </v>
   <v>       0.37519652       0.87662772       0.12299885 </v>
   <v>       0.12566376       0.62462395       0.62644001 </v>
   <v>       0.12514528       0.87755609       0.87368460 </v>
   <v>       0.37699578       0.62051597       0.87254566 </v>
   <v>       0.37935823       0.87986651       0.62423788 </v>
   <v>       0.62257278       0.12204321       0.12497383 </v>
   <v>       0.62441215       0.37588908       0.37612809 </v>
   <v>       0.87753422       0.12253768       0.37641957 </v>
   <v>       0.87221909       0.37360851       0.12547575 </v>
   <v>       0.62319679       0.12351130       0.62466932 </v>
   <v>       0.62285566       0.37317703       0.87293486 </v>
   <v>       0.87548845       0.12440966       0.87496885 </v>
   <v>       0.87555584       0.37907297       0.62577683 </v>
   <v>       0.62639269       0.62408292       0.12396517 </v>
   <v>       0.62484281       0.87735076       0.37716851 </v>
   <v>       0.87818267       0.62433973       0.37522886 </v>
   <v>       0.87574770       0.87347048       0.12424548 </v>
   <v>       0.62573832       0.62119184       0.62534478 </v>
   <v>       0.62599846       0.87506826       0.87558110 </v>
   <v>       0.87744901       0.62657753       0.87772860 </v>
   <v>       0.87520285       0.87741833       0.62405629 </v>
   <v>       0.00036419       0.99978957       0.00364370 </v>
   <v>       0.99585862       0.25061878       0.25166278 </v>
   <v>       0.25068557       0.99850902       0.25208200 </v>
   <v>       0.24923629       0.24744775       0.00444624 </v>
   <v>       0.00425886       0.00449045       0.49872213 </v>
   <v>       0.99609254       0.24772244       0.74813729 </v>
   <v>       0.24755038       0.99778036       0.74764236 </v>
   <v>       0.24860522       0.25057985       0.50071295 </v>
   <v>       0.00375747       0.49819161       0.00322518 </v>
   <v>       0.00145566       0.75094042       0.25194886 </v>
   <v>       0.24979124       0.50132039       0.25246879 </v>
   <v>       0.24917020       0.74804775       0.99832829 </v>
   <v>       0.99840763       0.49902713       0.49716192 </v>
   <v>       0.99673085       0.74879788       0.74962815 </v>
   <v>       0.24838175       0.50111331       0.74922400 </v>
   <v>       0.24887371       0.74940979       0.49641136 </v>
   <v>       0.50304117       0.99933296       0.99693275 </v>
   <v>       0.49915701       0.25544107       0.24947509 </v>
   <v>       0.74715802       0.99565906       0.25298192 </v>
   <v>       0.75080363       0.25176966       0.00271213 </v>
   <v>       0.49564308       0.99673971       0.49994820 </v>
   <v>       0.49814349       0.25163427       0.74552313 </v>
   <v>       0.74732765       0.99962854       0.75004386 </v>
   <v>       0.74981293       0.25093876       0.49935469 </v>
   <v>       0.49716504       0.50106199       0.99745656 </v>
   <v>       0.50231351       0.74890300       0.25100834 </v>
   <v>       0.74624038       0.49981091       0.25046990 </v>
   <v>       0.74840987       0.74879251       0.99985470 </v>
   <v>       0.50099932       0.50015131       0.50278203 </v>
   <v>       0.49942567       0.74562010       0.75255364 </v>
   <v>       0.75204972       0.50024433       0.75239339 </v>
   <v>       0.74717213       0.74985223       0.50181123 </v>
  </varray>
 </structure>
</modeling>
