unknown system                          
           1
     8.743316    0.000000    0.000000
     0.000000    8.743316    0.000000
     0.000000    0.000000    8.743316
   C    Si
    32    32
Direct configuration=     1
   0.12186308  0.12589107  0.12199427
   0.12811835  0.37681886  0.37592970
   0.37907525  0.12652063  0.37857251
   0.37473830  0.37374704  0.12489188
   0.12555771  0.12052329  0.62901025
   0.12473555  0.37622498  0.87361731
   0.37488997  0.12182592  0.87546763
   0.37482393  0.37232028  0.62455181
   0.12423673  0.62534697  0.12517231
   0.12557272  0.87276648  0.37978642
   0.37242093  0.62094309  0.37172335
   0.37519652  0.87662772  0.12299885
   0.12566376  0.62462395  0.62644001
   0.12514528  0.87755609  0.87368460
   0.37699578  0.62051597  0.87254566
   0.37935823  0.87986651  0.62423788
   0.62257278  0.12204321  0.12497383
   0.62441215  0.37588908  0.37612809
   0.87753422  0.12253768  0.37641957
   0.87221909  0.37360851  0.12547575
   0.62319679  0.12351130  0.62466932
   0.62285566  0.37317703  0.87293486
   0.87548845  0.12440966  0.87496885
   0.87555584  0.37907297  0.62577683
   0.62639269  0.62408292  0.12396517
   0.62484281  0.87735076  0.37716851
   0.87818267  0.62433973  0.37522886
   0.87574770  0.87347048  0.12424548
   0.62573832  0.62119184  0.62534478
   0.62599846  0.87506826  0.87558110
   0.87744901  0.62657753  0.87772860
   0.87520285  0.87741833  0.62405629
   0.00036419  0.99978957  0.00364370
   0.99585862  0.25061878  0.25166278
   0.25068557  0.99850902  0.25208200
   0.24923629  0.24744775  0.00444624
   0.00425886  0.00449045  0.49872213
   0.99609254  0.24772244  0.74813729
   0.24755038  0.99778036  0.74764236
   0.24860522  0.25057985  0.50071295
   0.00375747  0.49819161  0.00322518
   0.00145566  0.75094042  0.25194886
   0.24979124  0.50132039  0.25246879
   0.24917020  0.74804775  0.99832829
   0.99840763  0.49902713  0.49716192
   0.99673085  0.74879788  0.74962815
   0.24838175  0.50111331  0.74922400
   0.24887371  0.74940979  0.49641136
   0.50304117  0.99933296  0.99693275
   0.49915701  0.25544107  0.24947509
   0.74715802  0.99565906  0.25298192
   0.75080363  0.25176966  0.00271213
   0.49564308  0.99673971  0.49994820
   0.49814349  0.25163427  0.74552313
   0.74732765  0.99962854  0.75004386
   0.74981293  0.25093876  0.49935469
   0.49716504  0.50106199  0.99745656
   0.50231351  0.74890300  0.25100834
   0.74624038  0.49981091  0.25046990
   0.74840987  0.74879251  0.99985470
   0.50099932  0.50015131  0.50278203
   0.49942567  0.74562010  0.75255364
   0.75204972  0.50024433  0.75239339
   0.74717213  0.74985223  0.50181123
