       N       E                     dE             d eps       ncg     rms          rms(c)
DAV:   1     0.669066071391E+03    0.66907E+03   -0.99550E+04  4704   0.111E+03
DAV:   2    -0.463036873263E+03   -0.11321E+04   -0.10723E+04  5840   0.221E+02
DAV:   3    -0.537842307723E+03   -0.74805E+02   -0.74117E+02  5672   0.560E+01
DAV:   4    -0.539485795369E+03   -0.16435E+01   -0.16366E+01  5680   0.902E+00
DAV:   5    -0.539531992230E+03   -0.46197E-01   -0.46124E-01  5576   0.144E+00    0.492E+01
DAV:   6    -0.482902321218E+03    0.56630E+02   -0.19017E+02  5352   0.234E+01    0.218E+01
DAV:   7    -0.481542264052E+03    0.13601E+01   -0.15677E+01  5888   0.701E+00    0.973E+00
DAV:   8    -0.481314885369E+03    0.22738E+00   -0.10129E+00  5400   0.196E+00    0.261E+00
DAV:   9    -0.481298416866E+03    0.16469E-01   -0.14062E-01  5448   0.808E-01    0.430E-01
DAV:  10    -0.481301478225E+03   -0.30614E-02   -0.12240E-02  5720   0.244E-01    0.234E-01
DAV:  11    -0.481302504994E+03   -0.10268E-02   -0.19523E-03  5160   0.112E-01    0.758E-02
DAV:  12    -0.481302507180E+03   -0.21859E-05   -0.24196E-04  5968   0.394E-02    0.395E-02
DAV:  13    -0.481302518652E+03   -0.11472E-04   -0.93252E-05  5152   0.226E-02    0.103E-02
DAV:  14    -0.481302524386E+03   -0.57337E-05   -0.63354E-06  5560   0.538E-03    0.508E-03
DAV:  15    -0.481302526451E+03   -0.20653E-05   -0.19442E-06  5688   0.315E-03    0.389E-03
DAV:  16    -0.481302526059E+03    0.39217E-06   -0.26470E-07  5856   0.135E-03    0.138E-03
DAV:  17    -0.481302526341E+03   -0.28202E-06   -0.10373E-07  5128   0.693E-04    0.798E-04
DAV:  18    -0.481302526373E+03   -0.32134E-07   -0.10046E-08  2888   0.271E-04    0.367E-04
DAV:  19    -0.481302526331E+03    0.41869E-07   -0.74310E-09  2720   0.179E-04    0.128E-04
DAV:  20    -0.481302526338E+03   -0.62901E-08   -0.10117E-09  2712   0.922E-05
   1 F= -.48130253E+03 E0= -.48130582E+03  d E =0.989026E-02
