<?xml version="1.0" encoding="ISO-8859-1"?>
<modeling>
 <generator>
  <i name="program" type="string">vasp </i>
  <i name="version" type="string">6.2.1  </i>
  <i name="subversion" type="string">16May21 (build Jun 06 2020 10:27:25) complex                          parallel </i>
  <i name="platform" type="string">LinuxIFC </i>
  <i name="date" type="string">2024 01 25 </i>
  <i name="time" type="string">16:43:47 </i>
 </generator>
 <incar>
  <i type="int" name="NELM">    60</i>
  <i type="int" name="IBRION">     1</i>
  <i name="EDIFF">      0.00000001</i>
  <i type="int" name="NSW">     0</i>
  <i type="int" name="ISIF">     3</i>
  <i type="int" name="ISYM">     0</i>
  <i type="logical" name="LWAVE"> F  </i>
  <i type="logical" name="LCHARG"> F  </i>
  <i type="string" name="GGA">PE</i>
 </incar>
 <primitive_cell>
  <structure name="primitive_cell" >
   <crystal>
    <varray name="basis" >
     <v>       8.74331558       0.00000000       0.00000000 </v>
     <v>       0.00000000       8.74331558       0.00000000 </v>
     <v>       0.00000000       0.00000000       8.74331558 </v>
    </varray>
    <i name="volume">    668.38771987 </i>
    <varray name="rec_basis" >
     <v>       0.11437309       0.00000000       0.00000000 </v>
     <v>       0.00000000       0.11437309       0.00000000 </v>
     <v>       0.00000000       0.00000000       0.11437309 </v>
    </varray>
   </crystal>
   <varray name="positions" >
    <v>       0.12597230       0.12419102       0.12234319 </v>
    <v>       0.12361498       0.37769865       0.37475749 </v>
    <v>       0.37566220       0.12303186       0.37427142 </v>
    <v>       0.37269346       0.37616856       0.12862361 </v>
    <v>       0.12148302       0.12358801       0.62380168 </v>
    <v>       0.12613107       0.37222063       0.87762345 </v>
    <v>       0.37561383       0.12467213       0.87176632 </v>
    <v>       0.37632511       0.37358969       0.62639164 </v>
    <v>       0.12290247       0.62906304       0.12436745 </v>
    <v>       0.12675472       0.87192892       0.37854492 </v>
    <v>       0.37596421       0.62507818       0.37692325 </v>
    <v>       0.37664557       0.87284887       0.12768121 </v>
    <v>       0.12562064       0.62339094       0.62660357 </v>
    <v>       0.12607541       0.87524841       0.87391912 </v>
    <v>       0.37366496       0.62515892       0.87676179 </v>
    <v>       0.37469032       0.87549465       0.62559785 </v>
    <v>       0.62773448       0.12552435       0.12534171 </v>
    <v>       0.62498966       0.37243601       0.38024315 </v>
    <v>       0.87234933       0.12575801       0.37877609 </v>
    <v>       0.87533866       0.37560015       0.12370894 </v>
    <v>       0.62674573       0.12429783       0.62470997 </v>
    <v>       0.62830493       0.37249194       0.87384605 </v>
    <v>       0.87502240       0.12518495       0.87485250 </v>
    <v>       0.87593479       0.37457304       0.62592398 </v>
    <v>       0.63054583       0.62859234       0.12384243 </v>
    <v>       0.62722361       0.87418900       0.37528130 </v>
    <v>       0.87297642       0.62664588       0.37805472 </v>
    <v>       0.87841270       0.87548851       0.12136122 </v>
    <v>       0.62503383       0.62537557       0.62148865 </v>
    <v>       0.62525350       0.87764959       0.87414678 </v>
    <v>       0.87404502       0.62468632       0.87249198 </v>
    <v>       0.87714133       0.87554615       0.62871372 </v>
    <v>       0.00200836       0.99967478       0.99776629 </v>
    <v>       0.00266054       0.24757731       0.24974805 </v>
    <v>       0.25122094       0.99688685       0.24765039 </v>
    <v>       0.24604868       0.25133968       0.99907408 </v>
    <v>       0.99690207       0.00390941       0.50059385 </v>
    <v>       0.00081292       0.25077998       0.75069035 </v>
    <v>       0.24702205       0.99872303       0.75087230 </v>
    <v>       0.24579376       0.25028835       0.49987652 </v>
    <v>       0.99984455       0.50263198       0.99755791 </v>
    <v>       0.99873317       0.74565180       0.25278595 </v>
    <v>       0.24755469       0.50216510       0.25038499 </v>
    <v>       0.24921198       0.74848265       0.99887207 </v>
    <v>       0.99851885       0.50086654       0.50240379 </v>
    <v>       0.00143899       0.75047568       0.74794908 </v>
    <v>       0.24551473       0.50397734       0.75171572 </v>
    <v>       0.24981009       0.75067365       0.49859095 </v>
    <v>       0.50091395       0.00120108       0.99949713 </v>
    <v>       0.50197100       0.25503891       0.24949069 </v>
    <v>       0.74680875       0.99878376       0.25055598 </v>
    <v>       0.75115851       0.25072087       0.00449208 </v>
    <v>       0.50267573       0.00130730       0.49906127 </v>
    <v>       0.49995047       0.25104750       0.74834662 </v>
    <v>       0.75131690       0.99824492       0.74937485 </v>
    <v>       0.74638404       0.25022268       0.50001584 </v>
    <v>       0.49844230       0.50274398       0.00274834 </v>
    <v>       0.50054862       0.75036143       0.24998201 </v>
    <v>       0.74984652       0.49974495       0.25178958 </v>
    <v>       0.74743312       0.75188113       0.00278522 </v>
    <v>       0.50427120       0.50130032       0.50231275 </v>
    <v>       0.49700847       0.75187860       0.75147548 </v>
    <v>       0.74646881       0.49925192       0.74533077 </v>
    <v>       0.74961300       0.74960376       0.50063427 </v>
   </varray>
  </structure>
  <varray name="primitive_index" >
   <v type="int" >        1 </v>
   <v type="int" >        2 </v>
   <v type="int" >        3 </v>
   <v type="int" >        4 </v>
   <v type="int" >        5 </v>
   <v type="int" >        6 </v>
   <v type="int" >        7 </v>
   <v type="int" >        8 </v>
   <v type="int" >        9 </v>
   <v type="int" >       10 </v>
   <v type="int" >       11 </v>
   <v type="int" >       12 </v>
   <v type="int" >       13 </v>
   <v type="int" >       14 </v>
   <v type="int" >       15 </v>
   <v type="int" >       16 </v>
   <v type="int" >       17 </v>
   <v type="int" >       18 </v>
   <v type="int" >       19 </v>
   <v type="int" >       20 </v>
   <v type="int" >       21 </v>
   <v type="int" >       22 </v>
   <v type="int" >       23 </v>
   <v type="int" >       24 </v>
   <v type="int" >       25 </v>
   <v type="int" >       26 </v>
   <v type="int" >       27 </v>
   <v type="int" >       28 </v>
   <v type="int" >       29 </v>
   <v type="int" >       30 </v>
   <v type="int" >       31 </v>
   <v type="int" >       32 </v>
   <v type="int" >       33 </v>
   <v type="int" >       34 </v>
   <v type="int" >       35 </v>
   <v type="int" >       36 </v>
   <v type="int" >       37 </v>
   <v type="int" >       38 </v>
   <v type="int" >       39 </v>
   <v type="int" >       40 </v>
   <v type="int" >       41 </v>
   <v type="int" >       42 </v>
   <v type="int" >       43 </v>
   <v type="int" >       44 </v>
   <v type="int" >       45 </v>
   <v type="int" >       46 </v>
   <v type="int" >       47 </v>
   <v type="int" >       48 </v>
   <v type="int" >       49 </v>
   <v type="int" >       50 </v>
   <v type="int" >       51 </v>
   <v type="int" >       52 </v>
   <v type="int" >       53 </v>
   <v type="int" >       54 </v>
   <v type="int" >       55 </v>
   <v type="int" >       56 </v>
   <v type="int" >       57 </v>
   <v type="int" >       58 </v>
   <v type="int" >       59 </v>
   <v type="int" >       60 </v>
   <v type="int" >       61 </v>
   <v type="int" >       62 </v>
   <v type="int" >       63 </v>
   <v type="int" >       64 </v>
  </varray>
 </primitive_cell>
 <kpoints>
  <generation param="Monkhorst-Pack">
   <v type="int" name="divisions">       3        3        3 </v>
   <v name="usershift">      0.00000000       0.00000000       0.00000000 </v>
   <v name="genvec1">      0.33333333       0.00000000       0.00000000 </v>
   <v name="genvec2">      0.00000000       0.33333333       0.00000000 </v>
   <v name="genvec3">      0.00000000       0.00000000       0.33333333 </v>
   <v name="shift">      0.00000000       0.00000000       0.00000000 </v>
  </generation>
  <varray name="kpointlist" >
   <v>       0.00000000       0.00000000       0.00000000 </v>
   <v>       0.33333333       0.00000000       0.00000000 </v>
   <v>       0.00000000       0.33333333       0.00000000 </v>
   <v>       0.00000000       0.00000000       0.33333333 </v>
   <v>       0.33333333       0.33333333       0.00000000 </v>
   <v>       0.00000000       0.33333333       0.33333333 </v>
   <v>       0.33333333       0.00000000       0.33333333 </v>
   <v>      -0.33333333       0.33333333       0.00000000 </v>
   <v>      -0.33333333       0.00000000       0.33333333 </v>
   <v>       0.00000000      -0.33333333       0.33333333 </v>
   <v>       0.33333333       0.33333333       0.33333333 </v>
   <v>      -0.33333333       0.33333333       0.33333333 </v>
   <v>      -0.33333333      -0.33333333       0.33333333 </v>
   <v>       0.33333333      -0.33333333       0.33333333 </v>
  </varray>
  <varray name="weights" >
   <v>       0.03703704 </v>
   <v>       0.07407407 </v>
   <v>       0.07407407 </v>
   <v>       0.07407407 </v>
   <v>       0.07407407 </v>
   <v>       0.07407407 </v>
   <v>       0.07407407 </v>
   <v>       0.07407407 </v>
   <v>       0.07407407 </v>
   <v>       0.07407407 </v>
   <v>       0.07407407 </v>
   <v>       0.07407407 </v>
   <v>       0.07407407 </v>
   <v>       0.07407407 </v>
  </varray>
 </kpoints>
 <parameters>
  <separator name="general" >
   <i type="string" name="SYSTEM">unknown system</i>
   <i type="logical" name="LCOMPAT"> F  </i>
  </separator>
  <separator name="electronic" >
   <i type="string" name="PREC">normal</i>
   <i name="ENMAX">    400.00000000</i>
   <i name="ENAUG">    644.87300000</i>
   <i name="EDIFF">      0.00000001</i>
   <i type="int" name="IALGO">    38</i>
   <i type="int" name="IWAVPR">    10</i>
   <i type="int" name="NBANDS">   168</i>
   <i type="int" name="NBANDSLOW">    -1</i>
   <i type="int" name="NBANDSHIGH">    -1</i>
   <i name="NELECT">    256.00000000</i>
   <i type="int" name="TURBO">     0</i>
   <i type="int" name="IRESTART">     0</i>
   <i type="int" name="NREBOOT">     0</i>
   <i type="int" name="NMIN">     0</i>
   <i name="EREF">      0.00000000</i>
   <separator name="electronic smearing" >
    <i type="int" name="ISMEAR">     1</i>
    <i name="SIGMA">      0.20000000</i>
    <i name="KSPACING">      0.50000000</i>
    <i type="logical" name="KGAMMA"> T  </i>
    <i type="logical" name="KBLOWUP"> T  </i>
   </separator>
   <separator name="electronic projectors" >
    <i type="logical" name="LREAL"> F  </i>
    <v name="ROPT">      0.00000000      0.00000000</v>
    <i type="int" name="LMAXPAW">  -100</i>
    <i type="int" name="LMAXMIX">     2</i>
    <i type="logical" name="NLSPLINE"> F  </i>
   </separator>
   <separator name="electronic startup" >
    <i type="int" name="ISTART">     0</i>
    <i type="int" name="ICHARG">     2</i>
    <i type="int" name="INIWAV">     1</i>
   </separator>
   <separator name="electronic spin" >
    <i type="int" name="ISPIN">     1</i>
    <i type="logical" name="LNONCOLLINEAR"> F  </i>
    <v name="MAGMOM">      1.00000000      1.00000000      1.00000000      1.00000000      1.00000000      1.00000000      1.00000000      1.00000000      1.00000000      1.00000000      1.00000000      1.00000000      1.00000000      1.00000000      1.00000000      1.00000000      1.00000000      1.00000000      1.00000000      1.00000000
      1.00000000      1.00000000      1.00000000      1.00000000      1.00000000      1.00000000      1.00000000      1.00000000      1.00000000      1.00000000      1.00000000      1.00000000      1.00000000      1.00000000      1.00000000      1.00000000      1.00000000      1.00000000      1.00000000      1.00000000
      1.00000000      1.00000000      1.00000000      1.00000000      1.00000000      1.00000000      1.00000000      1.00000000      1.00000000      1.00000000      1.00000000      1.00000000      1.00000000      1.00000000      1.00000000      1.00000000      1.00000000      1.00000000      1.00000000      1.00000000
      1.00000000      1.00000000      1.00000000      1.00000000</v>
    <i name="NUPDOWN">     -1.00000000</i>
    <i type="logical" name="LSORBIT"> F  </i>
    <v name="SAXIS">      0.00000000      0.00000000      1.00000000</v>
    <i type="logical" name="LSPIRAL"> F  </i>
    <v name="QSPIRAL">      0.00000000      0.00000000      0.00000000</v>
    <i type="logical" name="LZEROZ"> F  </i>
   </separator>
   <separator name="electronic exchange-correlation" >
    <i type="logical" name="LASPH"> F  </i>
    <i type="logical" name="LMETAGGA"> F  </i>
   </separator>
   <separator name="electronic convergence" >
    <i type="int" name="NELM">    60</i>
    <i type="int" name="NELMDL">    -5</i>
    <i type="int" name="NELMIN">     2</i>
    <i name="ENINI">    400.00000000</i>
    <separator name="electronic convergence detail" >
     <i type="logical" name="LDIAG"> T  </i>
     <i type="logical" name="LSUBROT"> F  </i>
     <i name="WEIMIN">      0.00000000</i>
     <i name="EBREAK">      0.00000000</i>
     <i name="DEPER">      0.30000000</i>
     <i type="int" name="NRMM">     4</i>
     <i name="TIME">      0.40000000</i>
    </separator>
   </separator>
   <separator name="electronic mixer" >
    <i name="AMIX">      0.40000000</i>
    <i name="BMIX">      1.00000000</i>
    <i name="AMIN">      0.10000000</i>
    <i name="AMIX_MAG">      1.60000000</i>
    <i name="BMIX_MAG">      1.00000000</i>
    <separator name="electronic mixer details" >
     <i type="int" name="IMIX">     4</i>
     <i type="logical" name="MIXFIRST"> F  </i>
     <i type="int" name="MAXMIX">   -45</i>
     <i name="WC">    100.00000000</i>
     <i type="int" name="INIMIX">     1</i>
     <i type="int" name="MIXPRE">     1</i>
     <i type="int" name="MREMOVE">     5</i>
    </separator>
   </separator>
   <separator name="electronic dipolcorrection" >
    <i type="logical" name="LDIPOL"> F  </i>
    <i type="logical" name="LMONO"> F  </i>
    <i type="int" name="IDIPOL">     0</i>
    <i name="EPSILON">      1.00000000</i>
    <v name="DIPOL">   -100.00000000   -100.00000000   -100.00000000</v>
    <i name="EFIELD">      0.00000000</i>
   </separator>
  </separator>
  <separator name="grids" >
   <i type="int" name="NGX">    48</i>
   <i type="int" name="NGY">    48</i>
   <i type="int" name="NGZ">    48</i>
   <i type="int" name="NGXF">    96</i>
   <i type="int" name="NGYF">    96</i>
   <i type="int" name="NGZF">    96</i>
   <i type="logical" name="ADDGRID"> F  </i>
  </separator>
  <separator name="ionic" >
   <i type="int" name="NSW">     0</i>
   <i type="int" name="IBRION">    -1</i>
   <i type="int" name="MDALGO">     0</i>
   <i type="int" name="ISIF">     3</i>
   <i name="PSTRESS">      0.00000000</i>
   <i name="EDIFFG">      0.00000010</i>
   <i type="int" name="NFREE">     0</i>
   <i name="POTIM">      0.50000000</i>
   <i name="SMASS">     -3.00000000</i>
   <i name="SCALEE">      1.00000000</i>
  </separator>
  <separator name="ionic md" >
   <i name="TEBEG">      0.00010000</i>
   <i name="TEEND">      0.00010000</i>
   <i type="int" name="NBLOCK">     1</i>
   <i type="int" name="KBLOCK">     1</i>
   <i type="int" name="NPACO">   256</i>
   <i name="APACO">     16.00000000</i>
  </separator>
  <separator name="symmetry" >
   <i type="int" name="ISYM">     0</i>
   <i name="SYMPREC">      0.00001000</i>
  </separator>
  <separator name="dos" >
   <i type="int" name="LORBIT">     0</i>
   <v name="RWIGS">     -1.00000000     -1.00000000</v>
   <i type="int" name="NEDOS">   301</i>
   <i name="EMIN">     10.00000000</i>
   <i name="EMAX">    -10.00000000</i>
   <i name="EFERMI">      0.00000000</i>
  </separator>
  <separator name="writing" >
   <i type="int" name="NWRITE">     2</i>
   <i type="logical" name="LWAVE"> F  </i>
   <i type="logical" name="LDOWNSAMPLE"> F  </i>
   <i type="logical" name="LCHARG"> F  </i>
   <i type="logical" name="LPARD"> F  </i>
   <i type="logical" name="LVTOT"> F  </i>
   <i type="logical" name="LVHAR"> F  </i>
   <i type="logical" name="LELF"> F  </i>
   <i type="logical" name="LOPTICS"> F  </i>
   <v name="STM">      0.00000000      0.00000000      0.00000000      0.00000000      0.00000000      0.00000000      0.00000000</v>
  </separator>
  <separator name="performance" >
   <i type="int" name="NPAR">     8</i>
   <i type="int" name="NSIM">     4</i>
   <i type="int" name="NBLK">    -1</i>
   <i type="logical" name="LPLANE"> T  </i>
   <i type="logical" name="LSCALAPACK"> T  </i>
   <i type="logical" name="LSCAAWARE"> F  </i>
   <i type="logical" name="LSCALU"> F  </i>
   <i type="logical" name="LASYNC"> F  </i>
   <i type="logical" name="LORBITALREAL"> F  </i>
  </separator>
  <separator name="miscellaneous" >
   <i type="int" name="IDIOT">     3</i>
   <i type="int" name="PHON_NSTRUCT">    -1</i>
   <i type="logical" name="LMUSIC"> F  </i>
   <v name="POMASS">     12.01100000     28.08500000</v>
   <v name="DARWINR">      0.00000000      0.00000000</v>
   <v name="DARWINV">      1.00000000      1.00000000</v>
   <i type="logical" name="LCORR"> T  </i>
  </separator>
  <i type="logical" name="GGA_COMPAT"> T  </i>
  <i type="logical" name="LBERRY"> F  </i>
  <i type="int" name="ICORELEVEL">     0</i>
  <i type="logical" name="LDAU"> F  </i>
  <i type="int" name="I_CONSTRAINED_M">     0</i>
  <separator name="electronic exchange-correlation" >
   <i type="string" name="GGA">PE</i>
   <i type="int" name="VOSKOWN">     0</i>
   <i type="logical" name="LHFCALC"> F  </i>
   <i type="string" name="PRECFOCK"></i>
   <i type="logical" name="LSYMGRAD"> F  </i>
   <i type="logical" name="LHFONE"> F  </i>
   <i type="logical" name="LRHFCALC"> F  </i>
   <i type="logical" name="LTHOMAS"> F  </i>
   <i type="logical" name="LMODELHF"> F  </i>
   <i type="logical" name="LFOCKACE"> F  </i>
   <i name="ENCUT4O">     -1.00000000</i>
   <i type="int" name="EXXOEP">     0</i>
   <i type="int" name="FOURORBIT">     0</i>
   <i name="AEXX">      0.00000000</i>
   <i name="HFALPHA">      0.00000000</i>
   <i name="MCALPHA">      0.00000000</i>
   <i name="ALDAX">      1.00000000</i>
   <i name="AGGAX">      1.00000000</i>
   <i name="ALDAC">      1.00000000</i>
   <i name="AGGAC">      1.00000000</i>
   <i type="int" name="NKREDX">     1</i>
   <i type="int" name="NKREDY">     1</i>
   <i type="int" name="NKREDZ">     1</i>
   <i type="logical" name="SHIFTRED"> F  </i>
   <i type="logical" name="ODDONLY"> F  </i>
   <i type="logical" name="EVENONLY"> F  </i>
   <i type="int" name="LMAXFOCK">     0</i>
   <i type="int" name="NMAXFOCKAE">     0</i>
   <i type="logical" name="LFOCKAEDFT"> F  </i>
   <i name="HFSCREEN">      0.00000000</i>
   <i name="HFSCREENC">      0.00000000</i>
   <i type="int" name="NBANDSGWLOW">     0</i>
  </separator>
  <separator name="vdW DFT" >
   <i type="logical" name="LUSE_VDW"> F  </i>
   <i name="Zab_VDW">     -0.84910000</i>
   <i name="PARAM1">      0.12340000</i>
   <i name="PARAM2">      1.00000000</i>
   <i name="PARAM3">      0.00000000</i>
  </separator>
  <separator name="model GW" >
   <i type="int" name="MODEL_GW">     0</i>
   <i name="MODEL_EPS0">      6.26613487</i>
   <i name="MODEL_ALPHA">      1.00000000</i>
  </separator>
  <separator name="linear response parameters" >
   <i type="logical" name="LEPSILON"> F  </i>
   <i type="logical" name="LRPA"> F  </i>
   <i type="logical" name="LNABLA"> F  </i>
   <i type="logical" name="LVEL"> F  </i>
   <i type="int" name="KINTER">     0</i>
   <i name="CSHIFT">      0.10000000</i>
   <i name="OMEGAMAX">     -1.00000000</i>
   <i name="DEG_THRESHOLD">      0.00200000</i>
   <i name="RTIME">     -0.10000000</i>
   <i name="WPLASMAI">      0.00000000</i>
   <v name="DFIELD">      0.00000000      0.00000000      0.00000000</v>
   <v name="WPLASMA">      0.00000000      0.00000000      0.00000000      0.00000000      0.00000000      0.00000000      0.00000000      0.00000000      0.00000000</v>
  </separator>
  <separator name="orbital magnetization" >
   <i type="logical" name="NUCIND"> F  </i>
   <v name="MAGPOS">      0.00000000      0.00000000      0.00000000</v>
   <i type="logical" name="LNICSALL"> T  </i>
   <i type="logical" name="ORBITALMAG"> F  </i>
   <i type="logical" name="LMAGBLOCH"> F  </i>
   <i type="logical" name="LCHIMAG"> F  </i>
   <i type="logical" name="LGAUGE"> T  </i>
   <i type="int" name="MAGATOM">     0</i>
   <v name="MAGDIPOL">      0.00000000      0.00000000      0.00000000</v>
   <v name="AVECCONST">      0.00000000      0.00000000      0.00000000</v>
  </separator>
  <separator name="response functions" >
   <i type="logical" name="LFINITE_TEMPERATURE"> F  </i>
   <i type="logical" name="LADDER"> F  </i>
   <i type="logical" name="LRPAFORCE"> F  </i>
   <i type="logical" name="LFXC"> F  </i>
   <i type="logical" name="LHARTREE"> T  </i>
   <i type="int" name="IBSE">     0</i>
   <v type="int" name="KPOINT">    -1     0     0     0</v>
   <i type="logical" name="LTCTC"> F  </i>
   <i type="logical" name="LTCTE"> F  </i>
   <i type="logical" name="LTETE"> F  </i>
   <i type="logical" name="LTRIPLET"> F  </i>
   <i type="logical" name="LFXCEPS"> F  </i>
   <i type="logical" name="LFXHEG"> F  </i>
   <i type="int" name="NATURALO">     2</i>
   <i type="logical" name="LHOLEGF"> F  </i>
   <i type="logical" name="L2ORDER"> F  </i>
   <i type="logical" name="LDMP1"> F  </i>
   <i type="logical" name="LMP2LT"> F  </i>
   <i type="logical" name="LSMP2LT"> F  </i>
   <i type="logical" name="LGWLF"> F  </i>
   <i name="ENCUTGW">     -2.00000000</i>
   <i name="ENCUTGWSOFT">     -2.00000000</i>
   <i name="ENCUTLF">     -1.00000000</i>
   <i type="logical" name="LESF_SPLINES"> F  </i>
   <i type="int" name="LMAXMP2">    -1</i>
   <i name="SCISSOR">      0.00000000</i>
   <i type="int" name="NOMEGA">     0</i>
   <i type="int" name="NOMEGAR">     0</i>
   <i type="int" name="NBANDSGW">    -1</i>
   <i type="int" name="NBANDSO">    -1</i>
   <i type="int" name="NBANDSV">    -1</i>
   <i type="int" name="NELM">    60</i>
   <i type="int" name="NELMHF">     1</i>
   <i type="int" name="DIM">     3</i>
   <i type="int" name="IESPILON">     4</i>
   <i type="int" name="ANTIRES">     0</i>
   <i name="OMEGAMAX">    -30.00000000</i>
   <i name="OMEGAMIN">    -30.00000000</i>
   <i name="OMEGATL">   -200.00000000</i>
   <i type="int" name="OMEGAGRID">     0</i>
   <i name="CSHIFT">     -0.10000000</i>
   <i type="logical" name="LSELFENERGY"> F  </i>
   <i type="logical" name="LSPECTRAL"> F  </i>
   <i type="logical" name="LSPECTRALGW"> F  </i>
   <i type="logical" name="LSINGLES"> F  </i>
   <i type="logical" name="LFERMIGW"> F  </i>
   <i type="logical" name="ODDONLYGW"> F  </i>
   <i type="logical" name="EVENONLYGW"> F  </i>
   <i type="int" name="NKREDLFX">     1</i>
   <i type="int" name="NKREDLFY">     1</i>
   <i type="int" name="NKREDLFZ">     1</i>
   <i type="int" name="MAXMEM">  2800</i>
   <i type="int" name="TELESCOPE">     0</i>
   <i type="int" name="NTAUPAR">    -1</i>
   <i type="int" name="NOMEGAPAR">    -1</i>
   <i name="DAMP_NEWTON">      0.80000001</i>
   <i name="LAMBDA">      1.00000000</i>
  </separator>
  <separator name="External order field" >
   <i name="OFIELD_KAPPA">      0.00000000</i>
   <v name="OFIELD_K">      0.00000000      0.00000000      0.00000000</v>
   <i name="OFIELD_Q6_NEAR">      0.00000000</i>
   <i name="OFIELD_Q6_FAR">      0.00000000</i>
   <i name="OFIELD_A">      0.00000000</i>
  </separator>
 </parameters>
 <atominfo>
  <atoms>      64 </atoms>
  <types>       2 </types>
  <array name="atoms" >
   <dimension dim="1">ion</dimension>
   <field type="string">element</field>
   <field type="int">atomtype</field>
   <set>
    <rc><c>C </c><c>   1</c></rc>
    <rc><c>C </c><c>   1</c></rc>
    <rc><c>C </c><c>   1</c></rc>
    <rc><c>C </c><c>   1</c></rc>
    <rc><c>C </c><c>   1</c></rc>
    <rc><c>C </c><c>   1</c></rc>
    <rc><c>C </c><c>   1</c></rc>
    <rc><c>C </c><c>   1</c></rc>
    <rc><c>C </c><c>   1</c></rc>
    <rc><c>C </c><c>   1</c></rc>
    <rc><c>C </c><c>   1</c></rc>
    <rc><c>C </c><c>   1</c></rc>
    <rc><c>C </c><c>   1</c></rc>
    <rc><c>C </c><c>   1</c></rc>
    <rc><c>C </c><c>   1</c></rc>
    <rc><c>C </c><c>   1</c></rc>
    <rc><c>C </c><c>   1</c></rc>
    <rc><c>C </c><c>   1</c></rc>
    <rc><c>C </c><c>   1</c></rc>
    <rc><c>C </c><c>   1</c></rc>
    <rc><c>C </c><c>   1</c></rc>
    <rc><c>C </c><c>   1</c></rc>
    <rc><c>C </c><c>   1</c></rc>
    <rc><c>C </c><c>   1</c></rc>
    <rc><c>C </c><c>   1</c></rc>
    <rc><c>C </c><c>   1</c></rc>
    <rc><c>C </c><c>   1</c></rc>
    <rc><c>C </c><c>   1</c></rc>
    <rc><c>C </c><c>   1</c></rc>
    <rc><c>C </c><c>   1</c></rc>
    <rc><c>C </c><c>   1</c></rc>
    <rc><c>C </c><c>   1</c></rc>
    <rc><c>Si</c><c>   2</c></rc>
    <rc><c>Si</c><c>   2</c></rc>
    <rc><c>Si</c><c>   2</c></rc>
    <rc><c>Si</c><c>   2</c></rc>
    <rc><c>Si</c><c>   2</c></rc>
    <rc><c>Si</c><c>   2</c></rc>
    <rc><c>Si</c><c>   2</c></rc>
    <rc><c>Si</c><c>   2</c></rc>
    <rc><c>Si</c><c>   2</c></rc>
    <rc><c>Si</c><c>   2</c></rc>
    <rc><c>Si</c><c>   2</c></rc>
    <rc><c>Si</c><c>   2</c></rc>
    <rc><c>Si</c><c>   2</c></rc>
    <rc><c>Si</c><c>   2</c></rc>
    <rc><c>Si</c><c>   2</c></rc>
    <rc><c>Si</c><c>   2</c></rc>
    <rc><c>Si</c><c>   2</c></rc>
    <rc><c>Si</c><c>   2</c></rc>
    <rc><c>Si</c><c>   2</c></rc>
    <rc><c>Si</c><c>   2</c></rc>
    <rc><c>Si</c><c>   2</c></rc>
    <rc><c>Si</c><c>   2</c></rc>
    <rc><c>Si</c><c>   2</c></rc>
    <rc><c>Si</c><c>   2</c></rc>
    <rc><c>Si</c><c>   2</c></rc>
    <rc><c>Si</c><c>   2</c></rc>
    <rc><c>Si</c><c>   2</c></rc>
    <rc><c>Si</c><c>   2</c></rc>
    <rc><c>Si</c><c>   2</c></rc>
    <rc><c>Si</c><c>   2</c></rc>
    <rc><c>Si</c><c>   2</c></rc>
    <rc><c>Si</c><c>   2</c></rc>
   </set>
  </array>
  <array name="atomtypes" >
   <dimension dim="1">type</dimension>
   <field type="int">atomspertype</field>
   <field type="string">element</field>
   <field>mass</field>
   <field>valence</field>
   <field type="string">pseudopotential</field>
   <set>
    <rc><c>  32</c><c>C </c><c>     12.01100000</c><c>      4.00000000</c><c>  PAW_PBE C 08Apr2002                   </c></rc>
    <rc><c>  32</c><c>Si</c><c>     28.08500000</c><c>      4.00000000</c><c>  PAW_PBE Si 05Jan2001                  </c></rc>
   </set>
  </array>
 </atominfo>
 <structure name="initialpos" >
  <crystal>
   <varray name="basis" >
    <v>       8.74331558       0.00000000       0.00000000 </v>
    <v>       0.00000000       8.74331558       0.00000000 </v>
    <v>       0.00000000       0.00000000       8.74331558 </v>
   </varray>
   <i name="volume">    668.38771987 </i>
   <varray name="rec_basis" >
    <v>       0.11437309       0.00000000       0.00000000 </v>
    <v>       0.00000000       0.11437309       0.00000000 </v>
    <v>       0.00000000       0.00000000       0.11437309 </v>
   </varray>
  </crystal>
  <varray name="positions" >
   <v>       0.12597230       0.12419102       0.12234319 </v>
   <v>       0.12361498       0.37769865       0.37475749 </v>
   <v>       0.37566220       0.12303186       0.37427142 </v>
   <v>       0.37269346       0.37616856       0.12862361 </v>
   <v>       0.12148302       0.12358801       0.62380168 </v>
   <v>       0.12613107       0.37222063       0.87762345 </v>
   <v>       0.37561383       0.12467213       0.87176632 </v>
   <v>       0.37632511       0.37358969       0.62639164 </v>
   <v>       0.12290247       0.62906304       0.12436745 </v>
   <v>       0.12675472       0.87192892       0.37854492 </v>
   <v>       0.37596421       0.62507818       0.37692325 </v>
   <v>       0.37664557       0.87284887       0.12768121 </v>
   <v>       0.12562064       0.62339094       0.62660357 </v>
   <v>       0.12607541       0.87524841       0.87391912 </v>
   <v>       0.37366496       0.62515892       0.87676179 </v>
   <v>       0.37469032       0.87549465       0.62559785 </v>
   <v>       0.62773448       0.12552435       0.12534171 </v>
   <v>       0.62498966       0.37243601       0.38024315 </v>
   <v>       0.87234933       0.12575801       0.37877609 </v>
   <v>       0.87533866       0.37560015       0.12370894 </v>
   <v>       0.62674573       0.12429783       0.62470997 </v>
   <v>       0.62830493       0.37249194       0.87384605 </v>
   <v>       0.87502240       0.12518495       0.87485250 </v>
   <v>       0.87593479       0.37457304       0.62592398 </v>
   <v>       0.63054583       0.62859234       0.12384243 </v>
   <v>       0.62722361       0.87418900       0.37528130 </v>
   <v>       0.87297642       0.62664588       0.37805472 </v>
   <v>       0.87841270       0.87548851       0.12136122 </v>
   <v>       0.62503383       0.62537557       0.62148865 </v>
   <v>       0.62525350       0.87764959       0.87414678 </v>
   <v>       0.87404502       0.62468632       0.87249198 </v>
   <v>       0.87714133       0.87554615       0.62871372 </v>
   <v>       0.00200836       0.99967478       0.99776629 </v>
   <v>       0.00266054       0.24757731       0.24974805 </v>
   <v>       0.25122094       0.99688685       0.24765039 </v>
   <v>       0.24604868       0.25133968       0.99907408 </v>
   <v>       0.99690207       0.00390941       0.50059385 </v>
   <v>       0.00081292       0.25077998       0.75069035 </v>
   <v>       0.24702205       0.99872303       0.75087230 </v>
   <v>       0.24579376       0.25028835       0.49987652 </v>
   <v>       0.99984455       0.50263198       0.99755791 </v>
   <v>       0.99873317       0.74565180       0.25278595 </v>
   <v>       0.24755469       0.50216510       0.25038499 </v>
   <v>       0.24921198       0.74848265       0.99887207 </v>
   <v>       0.99851885       0.50086654       0.50240379 </v>
   <v>       0.00143899       0.75047568       0.74794908 </v>
   <v>       0.24551473       0.50397734       0.75171572 </v>
   <v>       0.24981009       0.75067365       0.49859095 </v>
   <v>       0.50091395       0.00120108       0.99949713 </v>
   <v>       0.50197100       0.25503891       0.24949069 </v>
   <v>       0.74680875       0.99878376       0.25055598 </v>
   <v>       0.75115851       0.25072087       0.00449208 </v>
   <v>       0.50267573       0.00130730       0.49906127 </v>
   <v>       0.49995047       0.25104750       0.74834662 </v>
   <v>       0.75131690       0.99824492       0.74937485 </v>
   <v>       0.74638404       0.25022268       0.50001584 </v>
   <v>       0.49844230       0.50274398       0.00274834 </v>
   <v>       0.50054862       0.75036143       0.24998201 </v>
   <v>       0.74984652       0.49974495       0.25178958 </v>
   <v>       0.74743312       0.75188113       0.00278522 </v>
   <v>       0.50427120       0.50130032       0.50231275 </v>
   <v>       0.49700847       0.75187860       0.75147548 </v>
   <v>       0.74646881       0.49925192       0.74533077 </v>
   <v>       0.74961300       0.74960376       0.50063427 </v>
  </varray>
 </structure>
 <calculation>
  <scstep>
   <time name="dav">   15.97   16.03</time>
   <time name="total">   16.22   16.28</time>
   <energy>
    <i name="alphaZ">    354.85177120 </i>
    <i name="ewald">  -9081.32010974 </i>
    <i name="hartreedc">   -672.00408950 </i>
    <i name="XCdc">    145.84896894 </i>
    <i name="pawpsdc">   6292.66707184 </i>
    <i name="pawaedc">  -5747.90303932 </i>
    <i name="eentropy">      0.00500009 </i>
    <i name="bandstr">   1370.74545468 </i>
    <i name="atom">   8006.17504320 </i>
    <i name="e_fr_energy">    669.06607139 </i>
    <i name="e_wo_entrp">    669.06107130 </i>
    <i name="e_0_energy">    669.06440469 </i>
   </energy>
  </scstep>
  <scstep>
   <time name="dav">   23.29   23.39</time>
   <time name="total">   23.29   23.40</time>
   <energy>
    <i name="e_fr_energy">   -463.03687326 </i>
    <i name="e_wo_entrp">   -463.05181750 </i>
    <i name="e_0_energy">   -463.04185468 </i>
   </energy>
  </scstep>
  <scstep>
   <time name="dav">   21.58   22.54</time>
   <time name="total">   21.59   22.55</time>
   <energy>
    <i name="e_fr_energy">   -537.84230772 </i>
    <i name="e_wo_entrp">   -537.86224931 </i>
    <i name="e_0_energy">   -537.84895492 </i>
   </energy>
  </scstep>
  <scstep>
   <time name="dav">   20.45   20.55</time>
   <time name="total">   20.45   20.55</time>
   <energy>
    <i name="e_fr_energy">   -539.48579537 </i>
    <i name="e_wo_entrp">   -539.50637030 </i>
    <i name="e_0_energy">   -539.49265368 </i>
   </energy>
  </scstep>
  <scstep>
   <time name="dav">   15.02   15.07</time>
   <time name="total">   15.25   15.30</time>
   <energy>
    <i name="e_fr_energy">   -539.53199223 </i>
    <i name="e_wo_entrp">   -539.55251005 </i>
    <i name="e_0_energy">   -539.53883150 </i>
   </energy>
  </scstep>
  <scstep>
   <time name="dav">   15.20   15.26</time>
   <time name="total">   15.52   15.57</time>
   <energy>
    <i name="e_fr_energy">   -482.90232122 </i>
    <i name="e_wo_entrp">   -482.91316027 </i>
    <i name="e_0_energy">   -482.90593424 </i>
   </energy>
  </scstep>
  <scstep>
   <time name="dav">   15.97   16.00</time>
   <time name="total">   16.36   16.44</time>
   <energy>
    <i name="e_fr_energy">   -481.54226405 </i>
    <i name="e_wo_entrp">   -481.55207528 </i>
    <i name="e_0_energy">   -481.54553446 </i>
   </energy>
  </scstep>
  <scstep>
   <time name="dav">   23.52   23.55</time>
   <time name="total">   23.92   23.98</time>
   <energy>
    <i name="e_fr_energy">   -481.31488537 </i>
    <i name="e_wo_entrp">   -481.32488588 </i>
    <i name="e_0_energy">   -481.31821887 </i>
   </energy>
  </scstep>
  <scstep>
   <time name="dav">   15.41   15.44</time>
   <time name="total">   15.82   15.86</time>
   <energy>
    <i name="e_fr_energy">   -481.29841687 </i>
    <i name="e_wo_entrp">   -481.30831136 </i>
    <i name="e_0_energy">   -481.30171503 </i>
   </energy>
  </scstep>
  <scstep>
   <time name="dav">   15.59   15.62</time>
   <time name="total">   15.97   16.00</time>
   <energy>
    <i name="e_fr_energy">   -481.30147822 </i>
    <i name="e_wo_entrp">   -481.31136678 </i>
    <i name="e_0_energy">   -481.30477441 </i>
   </energy>
  </scstep>
  <scstep>
   <time name="dav">   25.32   25.55</time>
   <time name="total">   26.02   26.27</time>
   <energy>
    <i name="e_fr_energy">   -481.30250499 </i>
    <i name="e_wo_entrp">   -481.31239651 </i>
    <i name="e_0_energy">   -481.30580217 </i>
   </energy>
  </scstep>
  <scstep>
   <time name="dav">   17.90   17.93</time>
   <time name="total">   18.57   18.62</time>
   <energy>
    <i name="e_fr_energy">   -481.30250718 </i>
    <i name="e_wo_entrp">   -481.31239632 </i>
    <i name="e_0_energy">   -481.30580356 </i>
   </energy>
  </scstep>
  <scstep>
   <time name="dav">   14.19   14.22</time>
   <time name="total">   14.56   14.61</time>
   <energy>
    <i name="e_fr_energy">   -481.30251865 </i>
    <i name="e_wo_entrp">   -481.31240896 </i>
    <i name="e_0_energy">   -481.30581542 </i>
   </energy>
  </scstep>
  <scstep>
   <time name="dav">   15.07   15.10</time>
   <time name="total">   15.45   15.48</time>
   <energy>
    <i name="e_fr_energy">   -481.30252439 </i>
    <i name="e_wo_entrp">   -481.31241479 </i>
    <i name="e_0_energy">   -481.30582119 </i>
   </energy>
  </scstep>
  <scstep>
   <time name="dav">   15.66   15.69</time>
   <time name="total">   16.02   16.10</time>
   <energy>
    <i name="e_fr_energy">   -481.30252645 </i>
    <i name="e_wo_entrp">   -481.31241673 </i>
    <i name="e_0_energy">   -481.30582321 </i>
   </energy>
  </scstep>
  <scstep>
   <time name="dav">   15.60   15.63</time>
   <time name="total">   16.00   16.04</time>
   <energy>
    <i name="e_fr_energy">   -481.30252606 </i>
    <i name="e_wo_entrp">   -481.31241639 </i>
    <i name="e_0_energy">   -481.30582284 </i>
   </energy>
  </scstep>
  <scstep>
   <time name="dav">   14.62   14.65</time>
   <time name="total">   15.01   15.04</time>
   <energy>
    <i name="e_fr_energy">   -481.30252634 </i>
    <i name="e_wo_entrp">   -481.31241663 </i>
    <i name="e_0_energy">   -481.30582310 </i>
   </energy>
  </scstep>
  <scstep>
   <time name="dav">   10.99   11.01</time>
   <time name="total">   11.36   11.39</time>
   <energy>
    <i name="e_fr_energy">   -481.30252637 </i>
    <i name="e_wo_entrp">   -481.31241664 </i>
    <i name="e_0_energy">   -481.30582313 </i>
   </energy>
  </scstep>
  <scstep>
   <time name="dav">    9.02    9.03</time>
   <time name="total">    9.39    9.41</time>
   <energy>
    <i name="e_fr_energy">   -481.30252633 </i>
    <i name="e_wo_entrp">   -481.31241659 </i>
    <i name="e_0_energy">   -481.30582308 </i>
   </energy>
  </scstep>
  <scstep>
   <time name="dav">    9.13    9.15</time>
   <time name="total">    9.36    9.39</time>
   <energy>
    <i name="alphaZ">    354.85177120 </i>
    <i name="ewald">  -9081.32010974 </i>
    <i name="hartreedc">  -1024.74301953 </i>
    <i name="XCdc">    179.29475168 </i>
    <i name="pawpsdc">  33044.94962185 </i>
    <i name="pawaedc"> -32505.88573597 </i>
    <i name="eentropy">      0.00989026 </i>
    <i name="bandstr">    545.36526071 </i>
    <i name="atom">   8006.17504320 </i>
    <i name="e_fr_energy">   -481.30252634 </i>
    <i name="e_wo_entrp">   -481.31241660 </i>
    <i name="e_0_energy">   -481.30582309 </i>
   </energy>
  </scstep>
  <structure>
   <crystal>
    <varray name="basis" >
     <v>       8.74331558       0.00000000       0.00000000 </v>
     <v>       0.00000000       8.74331558       0.00000000 </v>
     <v>       0.00000000       0.00000000       8.74331558 </v>
    </varray>
    <i name="volume">    668.38771987 </i>
    <varray name="rec_basis" >
     <v>       0.11437309       0.00000000       0.00000000 </v>
     <v>       0.00000000       0.11437309       0.00000000 </v>
     <v>       0.00000000       0.00000000       0.11437309 </v>
    </varray>
   </crystal>
   <varray name="positions" >
    <v>       0.12597230       0.12419102       0.12234319 </v>
    <v>       0.12361498       0.37769865       0.37475749 </v>
    <v>       0.37566220       0.12303186       0.37427142 </v>
    <v>       0.37269346       0.37616856       0.12862361 </v>
    <v>       0.12148302       0.12358801       0.62380168 </v>
    <v>       0.12613107       0.37222063       0.87762345 </v>
    <v>       0.37561383       0.12467213       0.87176632 </v>
    <v>       0.37632511       0.37358969       0.62639164 </v>
    <v>       0.12290247       0.62906304       0.12436745 </v>
    <v>       0.12675472       0.87192892       0.37854492 </v>
    <v>       0.37596421       0.62507818       0.37692325 </v>
    <v>       0.37664557       0.87284887       0.12768121 </v>
    <v>       0.12562064       0.62339094       0.62660357 </v>
    <v>       0.12607541       0.87524841       0.87391912 </v>
    <v>       0.37366496       0.62515892       0.87676179 </v>
    <v>       0.37469032       0.87549465       0.62559785 </v>
    <v>       0.62773448       0.12552435       0.12534171 </v>
    <v>       0.62498966       0.37243601       0.38024315 </v>
    <v>       0.87234933       0.12575801       0.37877609 </v>
    <v>       0.87533866       0.37560015       0.12370894 </v>
    <v>       0.62674573       0.12429783       0.62470997 </v>
    <v>       0.62830493       0.37249194       0.87384605 </v>
    <v>       0.87502240       0.12518495       0.87485250 </v>
    <v>       0.87593479       0.37457304       0.62592398 </v>
    <v>       0.63054583       0.62859234       0.12384243 </v>
    <v>       0.62722361       0.87418900       0.37528130 </v>
    <v>       0.87297642       0.62664588       0.37805472 </v>
    <v>       0.87841270       0.87548851       0.12136122 </v>
    <v>       0.62503383       0.62537557       0.62148865 </v>
    <v>       0.62525350       0.87764959       0.87414678 </v>
    <v>       0.87404502       0.62468632       0.87249198 </v>
    <v>       0.87714133       0.87554615       0.62871372 </v>
    <v>       0.00200836       0.99967478       0.99776629 </v>
    <v>       0.00266054       0.24757731       0.24974805 </v>
    <v>       0.25122094       0.99688685       0.24765039 </v>
    <v>       0.24604868       0.25133968       0.99907408 </v>
    <v>       0.99690207       0.00390941       0.50059385 </v>
    <v>       0.00081292       0.25077998       0.75069035 </v>
    <v>       0.24702205       0.99872303       0.75087230 </v>
    <v>       0.24579376       0.25028835       0.49987652 </v>
    <v>       0.99984455       0.50263198       0.99755791 </v>
    <v>       0.99873317       0.74565180       0.25278595 </v>
    <v>       0.24755469       0.50216510       0.25038499 </v>
    <v>       0.24921198       0.74848265       0.99887207 </v>
    <v>       0.99851885       0.50086654       0.50240379 </v>
    <v>       0.00143899       0.75047568       0.74794908 </v>
    <v>       0.24551473       0.50397734       0.75171572 </v>
    <v>       0.24981009       0.75067365       0.49859095 </v>
    <v>       0.50091395       0.00120108       0.99949713 </v>
    <v>       0.50197100       0.25503891       0.24949069 </v>
    <v>       0.74680875       0.99878376       0.25055598 </v>
    <v>       0.75115851       0.25072087       0.00449208 </v>
    <v>       0.50267573       0.00130730       0.49906127 </v>
    <v>       0.49995047       0.25104750       0.74834662 </v>
    <v>       0.75131690       0.99824492       0.74937485 </v>
    <v>       0.74638404       0.25022268       0.50001584 </v>
    <v>       0.49844230       0.50274398       0.00274834 </v>
    <v>       0.50054862       0.75036143       0.24998201 </v>
    <v>       0.74984652       0.49974495       0.25178958 </v>
    <v>       0.74743312       0.75188113       0.00278522 </v>
    <v>       0.50427120       0.50130032       0.50231275 </v>
    <v>       0.49700847       0.75187860       0.75147548 </v>
    <v>       0.74646881       0.49925192       0.74533077 </v>
    <v>       0.74961300       0.74960376       0.50063427 </v>
   </varray>
  </structure>
  <varray name="forces" >
   <v>       0.00083459      -0.22280426       0.47691359 </v>
   <v>      -0.10288780      -0.25045277       0.05403743 </v>
   <v>      -0.16206577       0.53796574      -0.16038360 </v>
   <v>       0.19380370       0.19685111      -0.61834320 </v>
   <v>       0.44884453       0.46830830       0.37801145 </v>
   <v>      -0.50181997       1.01332300      -0.57838983 </v>
   <v>      -0.40355783       0.18579176       0.65467061 </v>
   <v>      -0.60517362       0.71483706      -0.23399746 </v>
   <v>       0.22589542      -0.83617444       0.03266416 </v>
   <v>      -0.84887509       0.70531456      -0.74383949 </v>
   <v>       0.08034997      -0.12172550      -0.36926210 </v>
   <v>      -0.08161479       0.16397236      -0.92981194 </v>
   <v>      -0.21534775       0.53241996      -0.50524673 </v>
   <v>      -0.06384438      -0.34292290       0.16321081 </v>
   <v>       0.08485046       0.03098854      -0.17850709 </v>
   <v>      -0.03422591       0.02770052      -0.20985361 </v>
   <v>      -0.68543526       0.18476323       0.17505104 </v>
   <v>      -0.00462264       0.94905008      -1.04319635 </v>
   <v>       0.16388884      -0.04096770      -0.98396466 </v>
   <v>       0.31292395       0.13813318       0.66416840 </v>
   <v>      -0.21240874       0.00062769       0.09032051 </v>
   <v>      -0.84976721       0.56066286       0.44377559 </v>
   <v>       0.10413656       0.01887036       0.15453775 </v>
   <v>      -0.34066255       0.04033869      -0.30111840 </v>
   <v>      -1.25722921      -0.81902160       0.76814466 </v>
   <v>      -0.39881687      -0.04090476       0.04906563 </v>
   <v>       0.20520811      -0.56608100      -0.20584927 </v>
   <v>      -0.51815097      -0.08701933       0.99671048 </v>
   <v>      -0.18122908       0.40275853       0.90916654 </v>
   <v>      -0.20736831      -0.54834297       0.23879398 </v>
   <v>      -0.19061833       0.27770970       0.00766984 </v>
   <v>      -0.37239205      -0.19373649      -0.89386854 </v>
   <v>      -0.41393149       0.09201634       0.01395001 </v>
   <v>      -0.69044931       0.36372227       0.08303046 </v>
   <v>      -0.13719073       0.30854762       0.62458014 </v>
   <v>       1.36880619      -0.52935573       0.23139940 </v>
   <v>       0.31130581      -1.00542924      -0.06417127 </v>
   <v>      -0.41932135      -0.29202637       0.02601982 </v>
   <v>       0.63472588       0.39603697      -0.52345039 </v>
   <v>       0.91372293      -0.11934680      -0.01150963 </v>
   <v>      -0.35217556      -0.30633725       0.22077960 </v>
   <v>       0.04275383       1.22729204      -0.31257194 </v>
   <v>       0.28393668       0.09131930       0.16793278 </v>
   <v>       0.12953146       0.69824823       0.41414079 </v>
   <v>       0.02557307      -0.23169405      -0.18693088 </v>
   <v>      -0.32717398      -0.19692349       0.59000277 </v>
   <v>       1.09906353      -1.24298733      -0.07124759 </v>
   <v>       0.46740641      -0.26037533       0.69509120 </v>
   <v>      -0.27278770       0.08901366       0.02537491 </v>
   <v>      -0.55567296      -1.10470574       0.35172521 </v>
   <v>       1.12582204       0.14755097      -0.19803242 </v>
   <v>       0.16885373      -0.19140669      -1.09780928 </v>
   <v>      -0.50856686      -0.22483718       0.23452688 </v>
   <v>       0.18823786      -0.41471458       0.37818343 </v>
   <v>      -0.03507424       0.59915782       0.28963319 </v>
   <v>       1.01653129      -0.26894562       0.61682073 </v>
   <v>       0.57709845      -0.64693200      -0.45537673 </v>
   <v>       0.16265374      -0.24766572       0.35240440 </v>
   <v>       0.25194685      -0.11222266      -0.06285029 </v>
   <v>       1.17246520       0.18235525      -1.20863883 </v>
   <v>      -1.32959461      -0.43959834      -0.29336726 </v>
   <v>       0.45695675      -0.10886621      -0.28119717 </v>
   <v>       0.77170068       0.08741054       0.89196836 </v>
   <v>       0.29022445       0.58146581       0.25830946 </v>
  </varray>
  <varray name="stress" >
   <v>       2.79189623      -2.03240725       3.01954325 </v>
   <v>      -2.03240723       3.09971031      -6.56072424 </v>
   <v>       3.01954327      -6.56072424       2.84200430 </v>
  </varray>
  <energy>
   <i name="e_fr_energy">   -481.30252634 </i>
   <i name="e_wo_entrp">   -481.31241660 </i>
   <i name="e_0_energy">   -481.30582309 </i>
  </energy>
  <time name="totalsc">  348.76  351.22</time>
  <eigenvalues>
   <array>
    <dimension dim="1">band</dimension>
    <dimension dim="2">kpoint</dimension>
    <dimension dim="3">spin</dimension>
    <field>eigene</field>
    <field>occ</field>
    <set>
     <set comment="spin 1">
      <set comment="kpoint 1">
       <r>   -7.3425    1.0000 </r>
       <r>   -5.8845    1.0000 </r>
       <r>   -5.7986    1.0000 </r>
       <r>   -5.7762    1.0000 </r>
       <r>   -5.7588    1.0000 </r>
       <r>   -5.6879    1.0000 </r>
       <r>   -5.6360    1.0000 </r>
       <r>   -4.5002    1.0000 </r>
       <r>   -4.4943    1.0000 </r>
       <r>   -4.4341    1.0000 </r>
       <r>   -4.4189    1.0000 </r>
       <r>   -4.4013    1.0000 </r>
       <r>   -4.3590    1.0000 </r>
       <r>   -4.3493    1.0000 </r>
       <r>   -4.2954    1.0000 </r>
       <r>   -4.2855    1.0000 </r>
       <r>   -4.2218    1.0000 </r>
       <r>   -4.1802    1.0000 </r>
       <r>   -4.1414    1.0000 </r>
       <r>   -3.9033    1.0000 </r>
       <r>   -3.8466    1.0000 </r>
       <r>   -3.7368    1.0000 </r>
       <r>   -3.7120    1.0000 </r>
       <r>   -2.4426    1.0000 </r>
       <r>   -2.3616    1.0000 </r>
       <r>   -2.3010    1.0000 </r>
       <r>   -2.2510    1.0000 </r>
       <r>   -2.1940    1.0000 </r>
       <r>   -2.1322    1.0000 </r>
       <r>   -2.1102    1.0000 </r>
       <r>   -2.0948    1.0000 </r>
       <r>   -1.9816    1.0000 </r>
       <r>   -0.5706    1.0000 </r>
       <r>   -0.5279    1.0000 </r>
       <r>   -0.4587    1.0000 </r>
       <r>   -0.3953    1.0000 </r>
       <r>    0.2129    1.0000 </r>
       <r>    0.2364    1.0000 </r>
       <r>    0.2386    1.0000 </r>
       <r>    0.9224    1.0000 </r>
       <r>    0.9706    1.0000 </r>
       <r>    0.9816    1.0000 </r>
       <r>    0.9985    1.0000 </r>
       <r>    1.0233    1.0000 </r>
       <r>    1.0319    1.0000 </r>
       <r>    1.9284    1.0000 </r>
       <r>    1.9704    1.0000 </r>
       <r>    2.0169    1.0000 </r>
       <r>    2.0269    1.0000 </r>
       <r>    2.0523    1.0000 </r>
       <r>    2.0564    1.0000 </r>
       <r>    2.0725    1.0000 </r>
       <r>    2.1082    1.0000 </r>
       <r>    2.1122    1.0000 </r>
       <r>    2.1587    1.0000 </r>
       <r>    2.1693    1.0000 </r>
       <r>    2.2160    1.0000 </r>
       <r>    2.9586    1.0000 </r>
       <r>    2.9982    1.0000 </r>
       <r>    3.0392    1.0000 </r>
       <r>    3.0576    1.0000 </r>
       <r>    3.0876    1.0000 </r>
       <r>    3.1226    1.0000 </r>
       <r>    3.2928    1.0000 </r>
       <r>    3.3189    1.0000 </r>
       <r>    3.3332    1.0000 </r>
       <r>    3.3522    1.0000 </r>
       <r>    3.3737    1.0000 </r>
       <r>    3.4096    1.0000 </r>
       <r>    3.5821    1.0000 </r>
       <r>    3.5886    1.0000 </r>
       <r>    3.6009    1.0000 </r>
       <r>    3.6444    1.0000 </r>
       <r>    3.6639    1.0000 </r>
       <r>    3.6827    1.0000 </r>
       <r>    3.7129    1.0000 </r>
       <r>    3.7259    1.0000 </r>
       <r>    3.7374    1.0000 </r>
       <r>    3.7712    1.0000 </r>
       <r>    3.7862    1.0000 </r>
       <r>    3.8166    1.0000 </r>
       <r>    4.5950    1.0000 </r>
       <r>    4.6126    1.0000 </r>
       <r>    4.6381    1.0000 </r>
       <r>    4.6606    1.0000 </r>
       <r>    4.6925    1.0000 </r>
       <r>    4.7087    1.0000 </r>
       <r>    4.7953    1.0000 </r>
       <r>    4.8195    1.0000 </r>
       <r>    4.8325    1.0000 </r>
       <r>    4.8440    1.0000 </r>
       <r>    4.8589    1.0000 </r>
       <r>    4.8722    1.0000 </r>
       <r>    5.9234    1.0000 </r>
       <r>    5.9928    1.0000 </r>
       <r>    6.0184    1.0000 </r>
       <r>    6.0364    1.0000 </r>
       <r>    6.0531    1.0000 </r>
       <r>    6.0604    1.0000 </r>
       <r>    6.0755    1.0000 </r>
       <r>    6.0841    1.0000 </r>
       <r>    6.1161    1.0000 </r>
       <r>    6.1484    1.0000 </r>
       <r>    6.1818    1.0000 </r>
       <r>    6.2383    1.0000 </r>
       <r>    6.6488    1.0000 </r>
       <r>    6.7113    1.0000 </r>
       <r>    6.7369    1.0000 </r>
       <r>    6.7582    1.0000 </r>
       <r>    6.7677    1.0000 </r>
       <r>    6.7917    1.0000 </r>
       <r>    6.8114    1.0000 </r>
       <r>    6.8166    1.0000 </r>
       <r>    6.8459    1.0000 </r>
       <r>    6.8768    1.0000 </r>
       <r>    6.8934    1.0000 </r>
       <r>    6.9153    1.0000 </r>
       <r>    6.9210    1.0000 </r>
       <r>    6.9554    1.0000 </r>
       <r>    6.9836    1.0000 </r>
       <r>    6.9932    1.0000 </r>
       <r>    6.9940    1.0000 </r>
       <r>    7.0383    1.0000 </r>
       <r>    7.0663    1.0000 </r>
       <r>    7.1034    1.0000 </r>
       <r>    7.9614    1.0249 </r>
       <r>    8.0279    0.9473 </r>
       <r>    8.0753    0.8285 </r>
       <r>    9.2612   -0.0000 </r>
       <r>    9.3541   -0.0000 </r>
       <r>    9.4688   -0.0000 </r>
       <r>   11.9428   -0.0000 </r>
       <r>   11.9674   -0.0000 </r>
       <r>   12.0026   -0.0000 </r>
       <r>   12.0237   -0.0000 </r>
       <r>   12.0568   -0.0000 </r>
       <r>   12.0760   -0.0000 </r>
       <r>   12.2623   -0.0000 </r>
       <r>   12.2716   -0.0000 </r>
       <r>   12.3090   -0.0000 </r>
       <r>   13.0692   -0.0000 </r>
       <r>   13.1256   -0.0000 </r>
       <r>   13.1491   -0.0000 </r>
       <r>   13.1712   -0.0000 </r>
       <r>   13.1823   -0.0000 </r>
       <r>   13.2488   -0.0000 </r>
       <r>   13.2995   -0.0000 </r>
       <r>   13.3260   -0.0000 </r>
       <r>   13.3433   -0.0000 </r>
       <r>   13.3442   -0.0000 </r>
       <r>   13.3775   -0.0000 </r>
       <r>   13.4131   -0.0000 </r>
       <r>   13.4397   -0.0000 </r>
       <r>   13.4504   -0.0000 </r>
       <r>   13.4747   -0.0000 </r>
       <r>   13.4977   -0.0000 </r>
       <r>   13.5193   -0.0000 </r>
       <r>   13.5295   -0.0000 </r>
       <r>   13.5563   -0.0000 </r>
       <r>   13.5988   -0.0000 </r>
       <r>   13.6054   -0.0000 </r>
       <r>   13.6162   -0.0000 </r>
       <r>   14.1043    0.0000 </r>
       <r>   14.1956    0.0000 </r>
       <r>   14.2555    0.0000 </r>
       <r>   14.2670    0.0000 </r>
       <r>   14.3040    0.0000 </r>
       <r>   14.3458    0.0000 </r>
      </set>
      <set comment="kpoint 2">
       <r>   -7.1638    1.0000 </r>
       <r>   -6.6336    1.0000 </r>
       <r>   -5.6226    1.0000 </r>
       <r>   -5.6083    1.0000 </r>
       <r>   -5.6024    1.0000 </r>
       <r>   -5.5457    1.0000 </r>
       <r>   -5.1334    1.0000 </r>
       <r>   -5.1275    1.0000 </r>
       <r>   -5.1178    1.0000 </r>
       <r>   -5.0637    1.0000 </r>
       <r>   -4.5842    1.0000 </r>
       <r>   -4.3173    1.0000 </r>
       <r>   -4.2564    1.0000 </r>
       <r>   -4.1815    1.0000 </r>
       <r>   -4.1659    1.0000 </r>
       <r>   -4.0633    1.0000 </r>
       <r>   -4.0021    1.0000 </r>
       <r>   -3.9093    1.0000 </r>
       <r>   -3.9026    1.0000 </r>
       <r>   -3.4188    1.0000 </r>
       <r>   -3.4046    1.0000 </r>
       <r>   -3.3925    1.0000 </r>
       <r>   -3.3436    1.0000 </r>
       <r>   -3.2108    1.0000 </r>
       <r>   -2.5560    1.0000 </r>
       <r>   -2.5350    1.0000 </r>
       <r>   -2.5105    1.0000 </r>
       <r>   -2.4808    1.0000 </r>
       <r>   -2.3702    1.0000 </r>
       <r>   -2.2517    1.0000 </r>
       <r>   -2.2226    1.0000 </r>
       <r>   -2.0978    1.0000 </r>
       <r>   -0.1014    1.0000 </r>
       <r>   -0.0577    1.0000 </r>
       <r>   -0.0010    1.0000 </r>
       <r>    0.0580    1.0000 </r>
       <r>    0.3611    1.0000 </r>
       <r>    0.3776    1.0000 </r>
       <r>    0.7032    1.0000 </r>
       <r>    0.7382    1.0000 </r>
       <r>    0.9943    1.0000 </r>
       <r>    1.0248    1.0000 </r>
       <r>    1.0308    1.0000 </r>
       <r>    1.0591    1.0000 </r>
       <r>    1.0870    1.0000 </r>
       <r>    1.0990    1.0000 </r>
       <r>    1.1349    1.0000 </r>
       <r>    1.1792    1.0000 </r>
       <r>    1.2457    1.0000 </r>
       <r>    1.3821    1.0000 </r>
       <r>    1.3910    1.0000 </r>
       <r>    1.4314    1.0000 </r>
       <r>    1.4487    1.0000 </r>
       <r>    2.6793    1.0000 </r>
       <r>    2.6982    1.0000 </r>
       <r>    2.7153    1.0000 </r>
       <r>    2.7252    1.0000 </r>
       <r>    2.8945    1.0000 </r>
       <r>    2.9197    1.0000 </r>
       <r>    2.9361    1.0000 </r>
       <r>    2.9614    1.0000 </r>
       <r>    2.9919    1.0000 </r>
       <r>    3.0106    1.0000 </r>
       <r>    3.0363    1.0000 </r>
       <r>    3.0618    1.0000 </r>
       <r>    3.0747    1.0000 </r>
       <r>    3.5155    1.0000 </r>
       <r>    3.5326    1.0000 </r>
       <r>    3.6373    1.0000 </r>
       <r>    3.6613    1.0000 </r>
       <r>    3.9801    1.0000 </r>
       <r>    4.0041    1.0000 </r>
       <r>    4.0533    1.0000 </r>
       <r>    4.0642    1.0000 </r>
       <r>    4.3412    1.0000 </r>
       <r>    4.3534    1.0000 </r>
       <r>    4.3755    1.0000 </r>
       <r>    4.3973    1.0000 </r>
       <r>    4.4287    1.0000 </r>
       <r>    4.4341    1.0000 </r>
       <r>    4.4522    1.0000 </r>
       <r>    4.4940    1.0000 </r>
       <r>    4.6254    1.0000 </r>
       <r>    4.6390    1.0000 </r>
       <r>    4.6666    1.0000 </r>
       <r>    4.6690    1.0000 </r>
       <r>    4.7840    1.0000 </r>
       <r>    4.8229    1.0000 </r>
       <r>    4.8352    1.0000 </r>
       <r>    4.8632    1.0000 </r>
       <r>    4.9677    1.0000 </r>
       <r>    5.0130    1.0000 </r>
       <r>    5.3674    1.0000 </r>
       <r>    5.4216    1.0000 </r>
       <r>    5.5832    1.0000 </r>
       <r>    5.6002    1.0000 </r>
       <r>    5.6330    1.0000 </r>
       <r>    5.6604    1.0000 </r>
       <r>    5.8625    1.0000 </r>
       <r>    5.8806    1.0000 </r>
       <r>    5.8972    1.0000 </r>
       <r>    5.9382    1.0000 </r>
       <r>    6.1834    1.0000 </r>
       <r>    6.2225    1.0000 </r>
       <r>    6.2666    1.0000 </r>
       <r>    6.2877    1.0000 </r>
       <r>    6.3319    1.0000 </r>
       <r>    6.4495    1.0000 </r>
       <r>    6.4767    1.0000 </r>
       <r>    6.4977    1.0000 </r>
       <r>    6.5336    1.0000 </r>
       <r>    6.7024    1.0000 </r>
       <r>    6.7517    1.0000 </r>
       <r>    6.8123    1.0000 </r>
       <r>    6.8226    1.0000 </r>
       <r>    6.8613    1.0000 </r>
       <r>    6.8733    1.0000 </r>
       <r>    6.9078    1.0000 </r>
       <r>    6.9148    1.0000 </r>
       <r>    6.9436    1.0000 </r>
       <r>    6.9630    1.0000 </r>
       <r>    6.9947    1.0000 </r>
       <r>    7.0121    1.0000 </r>
       <r>    7.0392    1.0000 </r>
       <r>    7.0782    1.0000 </r>
       <r>    7.4704    1.0000 </r>
       <r>    7.6398    1.0007 </r>
       <r>    7.7298    1.0047 </r>
       <r>    9.6800   -0.0000 </r>
       <r>   10.1125   -0.0000 </r>
       <r>   10.2919   -0.0000 </r>
       <r>   10.6310   -0.0000 </r>
       <r>   11.8958   -0.0000 </r>
       <r>   12.0406   -0.0000 </r>
       <r>   12.4825   -0.0000 </r>
       <r>   12.6084   -0.0000 </r>
       <r>   12.6165   -0.0000 </r>
       <r>   12.6632   -0.0000 </r>
       <r>   12.6755   -0.0000 </r>
       <r>   12.9348   -0.0000 </r>
       <r>   12.9575   -0.0000 </r>
       <r>   12.9796   -0.0000 </r>
       <r>   12.9999   -0.0000 </r>
       <r>   13.0480   -0.0000 </r>
       <r>   13.0681   -0.0000 </r>
       <r>   13.0822   -0.0000 </r>
       <r>   13.1072   -0.0000 </r>
       <r>   13.1234   -0.0000 </r>
       <r>   13.1479   -0.0000 </r>
       <r>   13.1796   -0.0000 </r>
       <r>   13.5063   -0.0000 </r>
       <r>   13.5883   -0.0000 </r>
       <r>   13.6228    0.0000 </r>
       <r>   13.6372    0.0000 </r>
       <r>   13.6544    0.0000 </r>
       <r>   13.6786    0.0000 </r>
       <r>   13.6917    0.0000 </r>
       <r>   13.7142    0.0000 </r>
       <r>   13.7279    0.0000 </r>
       <r>   13.9262    0.0000 </r>
       <r>   13.9637    0.0000 </r>
       <r>   14.0105    0.0000 </r>
       <r>   14.0183    0.0000 </r>
       <r>   14.4751    0.0000 </r>
       <r>   14.8058    0.0000 </r>
       <r>   14.8140    0.0000 </r>
       <r>   14.8803    0.0000 </r>
       <r>   14.9048    0.0000 </r>
      </set>
      <set comment="kpoint 3">
       <r>   -7.1646    1.0000 </r>
       <r>   -6.6261    1.0000 </r>
       <r>   -5.7210    1.0000 </r>
       <r>   -5.6297    1.0000 </r>
       <r>   -5.5471    1.0000 </r>
       <r>   -5.4812    1.0000 </r>
       <r>   -5.2265    1.0000 </r>
       <r>   -5.1391    1.0000 </r>
       <r>   -5.0522    1.0000 </r>
       <r>   -4.9926    1.0000 </r>
       <r>   -4.5999    1.0000 </r>
       <r>   -4.3440    1.0000 </r>
       <r>   -4.2752    1.0000 </r>
       <r>   -4.1789    1.0000 </r>
       <r>   -4.1612    1.0000 </r>
       <r>   -4.0633    1.0000 </r>
       <r>   -4.0076    1.0000 </r>
       <r>   -3.8990    1.0000 </r>
       <r>   -3.8590    1.0000 </r>
       <r>   -3.5201    1.0000 </r>
       <r>   -3.4299    1.0000 </r>
       <r>   -3.3656    1.0000 </r>
       <r>   -3.2698    1.0000 </r>
       <r>   -3.2183    1.0000 </r>
       <r>   -2.6302    1.0000 </r>
       <r>   -2.5589    1.0000 </r>
       <r>   -2.4797    1.0000 </r>
       <r>   -2.4027    1.0000 </r>
       <r>   -2.3351    1.0000 </r>
       <r>   -2.2875    1.0000 </r>
       <r>   -2.1702    1.0000 </r>
       <r>   -2.1603    1.0000 </r>
       <r>   -0.1154    1.0000 </r>
       <r>   -0.0616    1.0000 </r>
       <r>    0.0052    1.0000 </r>
       <r>    0.0690    1.0000 </r>
       <r>    0.3579    1.0000 </r>
       <r>    0.3756    1.0000 </r>
       <r>    0.7262    1.0000 </r>
       <r>    0.7405    1.0000 </r>
       <r>    0.9730    1.0000 </r>
       <r>    0.9962    1.0000 </r>
       <r>    1.0450    1.0000 </r>
       <r>    1.0667    1.0000 </r>
       <r>    1.0793    1.0000 </r>
       <r>    1.1185    1.0000 </r>
       <r>    1.1524    1.0000 </r>
       <r>    1.1796    1.0000 </r>
       <r>    1.2468    1.0000 </r>
       <r>    1.3234    1.0000 </r>
       <r>    1.4006    1.0000 </r>
       <r>    1.4308    1.0000 </r>
       <r>    1.4747    1.0000 </r>
       <r>    2.6450    1.0000 </r>
       <r>    2.6868    1.0000 </r>
       <r>    2.7206    1.0000 </r>
       <r>    2.7636    1.0000 </r>
       <r>    2.8847    1.0000 </r>
       <r>    2.9047    1.0000 </r>
       <r>    2.9272    1.0000 </r>
       <r>    2.9585    1.0000 </r>
       <r>    2.9842    1.0000 </r>
       <r>    3.0175    1.0000 </r>
       <r>    3.0520    1.0000 </r>
       <r>    3.0759    1.0000 </r>
       <r>    3.1072    1.0000 </r>
       <r>    3.5152    1.0000 </r>
       <r>    3.5248    1.0000 </r>
       <r>    3.6485    1.0000 </r>
       <r>    3.6579    1.0000 </r>
       <r>    3.9626    1.0000 </r>
       <r>    4.0128    1.0000 </r>
       <r>    4.0383    1.0000 </r>
       <r>    4.1034    1.0000 </r>
       <r>    4.3221    1.0000 </r>
       <r>    4.3503    1.0000 </r>
       <r>    4.3701    1.0000 </r>
       <r>    4.3891    1.0000 </r>
       <r>    4.4031    1.0000 </r>
       <r>    4.4371    1.0000 </r>
       <r>    4.4794    1.0000 </r>
       <r>    4.5067    1.0000 </r>
       <r>    4.5722    1.0000 </r>
       <r>    4.6327    1.0000 </r>
       <r>    4.6681    1.0000 </r>
       <r>    4.7166    1.0000 </r>
       <r>    4.7306    1.0000 </r>
       <r>    4.7956    1.0000 </r>
       <r>    4.8621    1.0000 </r>
       <r>    4.9134    1.0000 </r>
       <r>    4.9703    1.0000 </r>
       <r>    5.0024    1.0000 </r>
       <r>    5.3919    1.0000 </r>
       <r>    5.4216    1.0000 </r>
       <r>    5.5348    1.0000 </r>
       <r>    5.5998    1.0000 </r>
       <r>    5.6409    1.0000 </r>
       <r>    5.6977    1.0000 </r>
       <r>    5.8060    1.0000 </r>
       <r>    5.8804    1.0000 </r>
       <r>    5.9209    1.0000 </r>
       <r>    5.9528    1.0000 </r>
       <r>    6.1461    1.0000 </r>
       <r>    6.1824    1.0000 </r>
       <r>    6.2569    1.0000 </r>
       <r>    6.3291    1.0000 </r>
       <r>    6.3753    1.0000 </r>
       <r>    6.4097    1.0000 </r>
       <r>    6.4630    1.0000 </r>
       <r>    6.5084    1.0000 </r>
       <r>    6.5887    1.0000 </r>
       <r>    6.7417    1.0000 </r>
       <r>    6.7561    1.0000 </r>
       <r>    6.8012    1.0000 </r>
       <r>    6.8203    1.0000 </r>
       <r>    6.8672    1.0000 </r>
       <r>    6.8868    1.0000 </r>
       <r>    6.8950    1.0000 </r>
       <r>    6.9224    1.0000 </r>
       <r>    6.9413    1.0000 </r>
       <r>    6.9652    1.0000 </r>
       <r>    6.9737    1.0000 </r>
       <r>    7.0098    1.0000 </r>
       <r>    7.0315    1.0000 </r>
       <r>    7.0549    1.0000 </r>
       <r>    7.4626    1.0000 </r>
       <r>    7.6656    1.0013 </r>
       <r>    7.7126    1.0034 </r>
       <r>    9.6647   -0.0000 </r>
       <r>   10.1933   -0.0000 </r>
       <r>   10.2258   -0.0000 </r>
       <r>   10.6260   -0.0000 </r>
       <r>   11.9594   -0.0000 </r>
       <r>   11.9831   -0.0000 </r>
       <r>   12.4829   -0.0000 </r>
       <r>   12.5698   -0.0000 </r>
       <r>   12.6390   -0.0000 </r>
       <r>   12.6599   -0.0000 </r>
       <r>   12.7126   -0.0000 </r>
       <r>   12.8932   -0.0000 </r>
       <r>   12.9333   -0.0000 </r>
       <r>   12.9843   -0.0000 </r>
       <r>   13.0061   -0.0000 </r>
       <r>   13.0332   -0.0000 </r>
       <r>   13.0563   -0.0000 </r>
       <r>   13.0935   -0.0000 </r>
       <r>   13.1145   -0.0000 </r>
       <r>   13.1243   -0.0000 </r>
       <r>   13.1728   -0.0000 </r>
       <r>   13.2207   -0.0000 </r>
       <r>   13.4828   -0.0000 </r>
       <r>   13.5639   -0.0000 </r>
       <r>   13.6012   -0.0000 </r>
       <r>   13.6462    0.0000 </r>
       <r>   13.6665    0.0000 </r>
       <r>   13.6841    0.0000 </r>
       <r>   13.7074    0.0000 </r>
       <r>   13.7247    0.0000 </r>
       <r>   13.7435    0.0000 </r>
       <r>   13.9069    0.0000 </r>
       <r>   13.9626    0.0000 </r>
       <r>   13.9895    0.0000 </r>
       <r>   14.0452    0.0000 </r>
       <r>   14.4754    0.0000 </r>
       <r>   14.7887    0.0000 </r>
       <r>   14.8335    0.0000 </r>
       <r>   14.8582    0.0000 </r>
       <r>   14.8827    0.0000 </r>
      </set>
      <set comment="kpoint 4">
       <r>   -7.1637    1.0000 </r>
       <r>   -6.6322    1.0000 </r>
       <r>   -5.6665    1.0000 </r>
       <r>   -5.6204    1.0000 </r>
       <r>   -5.5804    1.0000 </r>
       <r>   -5.5084    1.0000 </r>
       <r>   -5.1808    1.0000 </r>
       <r>   -5.1365    1.0000 </r>
       <r>   -5.0969    1.0000 </r>
       <r>   -5.0202    1.0000 </r>
       <r>   -4.5889    1.0000 </r>
       <r>   -4.3325    1.0000 </r>
       <r>   -4.2780    1.0000 </r>
       <r>   -4.1571    1.0000 </r>
       <r>   -4.1537    1.0000 </r>
       <r>   -4.0708    1.0000 </r>
       <r>   -4.0104    1.0000 </r>
       <r>   -3.8986    1.0000 </r>
       <r>   -3.8886    1.0000 </r>
       <r>   -3.4728    1.0000 </r>
       <r>   -3.4112    1.0000 </r>
       <r>   -3.3728    1.0000 </r>
       <r>   -3.3291    1.0000 </r>
       <r>   -3.2057    1.0000 </r>
       <r>   -2.6031    1.0000 </r>
       <r>   -2.5382    1.0000 </r>
       <r>   -2.4968    1.0000 </r>
       <r>   -2.4482    1.0000 </r>
       <r>   -2.3181    1.0000 </r>
       <r>   -2.2772    1.0000 </r>
       <r>   -2.2005    1.0000 </r>
       <r>   -2.1379    1.0000 </r>
       <r>   -0.1105    1.0000 </r>
       <r>   -0.0638    1.0000 </r>
       <r>    0.0104    1.0000 </r>
       <r>    0.0650    1.0000 </r>
       <r>    0.3582    1.0000 </r>
       <r>    0.3794    1.0000 </r>
       <r>    0.7107    1.0000 </r>
       <r>    0.7339    1.0000 </r>
       <r>    0.9793    1.0000 </r>
       <r>    1.0055    1.0000 </r>
       <r>    1.0485    1.0000 </r>
       <r>    1.0565    1.0000 </r>
       <r>    1.0823    1.0000 </r>
       <r>    1.0902    1.0000 </r>
       <r>    1.1522    1.0000 </r>
       <r>    1.1840    1.0000 </r>
       <r>    1.2396    1.0000 </r>
       <r>    1.3700    1.0000 </r>
       <r>    1.3799    1.0000 </r>
       <r>    1.4384    1.0000 </r>
       <r>    1.4727    1.0000 </r>
       <r>    2.6684    1.0000 </r>
       <r>    2.6996    1.0000 </r>
       <r>    2.7241    1.0000 </r>
       <r>    2.7445    1.0000 </r>
       <r>    2.8902    1.0000 </r>
       <r>    2.9257    1.0000 </r>
       <r>    2.9359    1.0000 </r>
       <r>    2.9650    1.0000 </r>
       <r>    2.9747    1.0000 </r>
       <r>    3.0192    1.0000 </r>
       <r>    3.0363    1.0000 </r>
       <r>    3.0621    1.0000 </r>
       <r>    3.0790    1.0000 </r>
       <r>    3.5132    1.0000 </r>
       <r>    3.5218    1.0000 </r>
       <r>    3.6500    1.0000 </r>
       <r>    3.6597    1.0000 </r>
       <r>    3.9890    1.0000 </r>
       <r>    4.0018    1.0000 </r>
       <r>    4.0637    1.0000 </r>
       <r>    4.0701    1.0000 </r>
       <r>    4.3317    1.0000 </r>
       <r>    4.3548    1.0000 </r>
       <r>    4.3832    1.0000 </r>
       <r>    4.3900    1.0000 </r>
       <r>    4.4084    1.0000 </r>
       <r>    4.4286    1.0000 </r>
       <r>    4.4663    1.0000 </r>
       <r>    4.4860    1.0000 </r>
       <r>    4.5750    1.0000 </r>
       <r>    4.6216    1.0000 </r>
       <r>    4.6459    1.0000 </r>
       <r>    4.7241    1.0000 </r>
       <r>    4.7363    1.0000 </r>
       <r>    4.7981    1.0000 </r>
       <r>    4.8826    1.0000 </r>
       <r>    4.9078    1.0000 </r>
       <r>    4.9858    1.0000 </r>
       <r>    5.0005    1.0000 </r>
       <r>    5.3887    1.0000 </r>
       <r>    5.4132    1.0000 </r>
       <r>    5.5399    1.0000 </r>
       <r>    5.6011    1.0000 </r>
       <r>    5.6241    1.0000 </r>
       <r>    5.7002    1.0000 </r>
       <r>    5.8416    1.0000 </r>
       <r>    5.8622    1.0000 </r>
       <r>    5.9137    1.0000 </r>
       <r>    5.9297    1.0000 </r>
       <r>    6.1605    1.0000 </r>
       <r>    6.1969    1.0000 </r>
       <r>    6.2400    1.0000 </r>
       <r>    6.3114    1.0000 </r>
       <r>    6.3592    1.0000 </r>
       <r>    6.4311    1.0000 </r>
       <r>    6.4734    1.0000 </r>
       <r>    6.5243    1.0000 </r>
       <r>    6.5593    1.0000 </r>
       <r>    6.7768    1.0000 </r>
       <r>    6.7965    1.0000 </r>
       <r>    6.8285    1.0000 </r>
       <r>    6.8426    1.0000 </r>
       <r>    6.8593    1.0000 </r>
       <r>    6.8924    1.0000 </r>
       <r>    6.9084    1.0000 </r>
       <r>    6.9182    1.0000 </r>
       <r>    6.9322    1.0000 </r>
       <r>    6.9555    1.0000 </r>
       <r>    6.9692    1.0000 </r>
       <r>    6.9857    1.0000 </r>
       <r>    7.0034    1.0000 </r>
       <r>    7.0324    1.0000 </r>
       <r>    7.4623    1.0000 </r>
       <r>    7.6835    1.0019 </r>
       <r>    7.6917    1.0022 </r>
       <r>    9.6671   -0.0000 </r>
       <r>   10.1883   -0.0000 </r>
       <r>   10.2345   -0.0000 </r>
       <r>   10.6195   -0.0000 </r>
       <r>   11.9533   -0.0000 </r>
       <r>   11.9838   -0.0000 </r>
       <r>   12.4871   -0.0000 </r>
       <r>   12.5932   -0.0000 </r>
       <r>   12.6330   -0.0000 </r>
       <r>   12.6578   -0.0000 </r>
       <r>   12.7099   -0.0000 </r>
       <r>   12.8934   -0.0000 </r>
       <r>   12.9482   -0.0000 </r>
       <r>   12.9822   -0.0000 </r>
       <r>   13.0098   -0.0000 </r>
       <r>   13.0325   -0.0000 </r>
       <r>   13.0685   -0.0000 </r>
       <r>   13.0843   -0.0000 </r>
       <r>   13.1045   -0.0000 </r>
       <r>   13.1260   -0.0000 </r>
       <r>   13.1452   -0.0000 </r>
       <r>   13.2116   -0.0000 </r>
       <r>   13.4995   -0.0000 </r>
       <r>   13.5776   -0.0000 </r>
       <r>   13.5957   -0.0000 </r>
       <r>   13.6519    0.0000 </r>
       <r>   13.6742    0.0000 </r>
       <r>   13.6807    0.0000 </r>
       <r>   13.6982    0.0000 </r>
       <r>   13.7169    0.0000 </r>
       <r>   13.7374    0.0000 </r>
       <r>   13.9108    0.0000 </r>
       <r>   13.9717    0.0000 </r>
       <r>   13.9808    0.0000 </r>
       <r>   14.0451    0.0000 </r>
       <r>   14.4769    0.0000 </r>
       <r>   14.7868    0.0000 </r>
       <r>   14.8140    0.0000 </r>
       <r>   14.8477    0.0000 </r>
       <r>   14.8864    0.0000 </r>
      </set>
      <set comment="kpoint 5">
       <r>   -6.9872    1.0000 </r>
       <r>   -6.4783    1.0000 </r>
       <r>   -6.4356    1.0000 </r>
       <r>   -5.9416    1.0000 </r>
       <r>   -5.4536    1.0000 </r>
       <r>   -5.4144    1.0000 </r>
       <r>   -5.0035    1.0000 </r>
       <r>   -4.9759    1.0000 </r>
       <r>   -4.9668    1.0000 </r>
       <r>   -4.8983    1.0000 </r>
       <r>   -4.5652    1.0000 </r>
       <r>   -4.5565    1.0000 </r>
       <r>   -4.4555    1.0000 </r>
       <r>   -4.3947    1.0000 </r>
       <r>   -4.0366    1.0000 </r>
       <r>   -3.9961    1.0000 </r>
       <r>   -3.5331    1.0000 </r>
       <r>   -3.5122    1.0000 </r>
       <r>   -3.4165    1.0000 </r>
       <r>   -3.4021    1.0000 </r>
       <r>   -3.3941    1.0000 </r>
       <r>   -3.3308    1.0000 </r>
       <r>   -3.1388    1.0000 </r>
       <r>   -3.0918    1.0000 </r>
       <r>   -2.8928    1.0000 </r>
       <r>   -2.8260    1.0000 </r>
       <r>   -2.7504    1.0000 </r>
       <r>   -2.7317    1.0000 </r>
       <r>   -2.6652    1.0000 </r>
       <r>   -2.3440    1.0000 </r>
       <r>   -2.2895    1.0000 </r>
       <r>   -2.2466    1.0000 </r>
       <r>   -0.2134    1.0000 </r>
       <r>   -0.1399    1.0000 </r>
       <r>    0.4657    1.0000 </r>
       <r>    0.5144    1.0000 </r>
       <r>    0.5408    1.0000 </r>
       <r>    0.5613    1.0000 </r>
       <r>    0.5996    1.0000 </r>
       <r>    0.6290    1.0000 </r>
       <r>    0.6843    1.0000 </r>
       <r>    0.7670    1.0000 </r>
       <r>    0.8159    1.0000 </r>
       <r>    0.8479    1.0000 </r>
       <r>    0.8629    1.0000 </r>
       <r>    0.9884    1.0000 </r>
       <r>    1.1837    1.0000 </r>
       <r>    1.2390    1.0000 </r>
       <r>    1.2580    1.0000 </r>
       <r>    1.2787    1.0000 </r>
       <r>    1.9675    1.0000 </r>
       <r>    2.0115    1.0000 </r>
       <r>    2.0347    1.0000 </r>
       <r>    2.0582    1.0000 </r>
       <r>    2.1230    1.0000 </r>
       <r>    2.1551    1.0000 </r>
       <r>    2.4138    1.0000 </r>
       <r>    2.5495    1.0000 </r>
       <r>    2.5883    1.0000 </r>
       <r>    2.6877    1.0000 </r>
       <r>    2.7269    1.0000 </r>
       <r>    3.1967    1.0000 </r>
       <r>    3.2300    1.0000 </r>
       <r>    3.2893    1.0000 </r>
       <r>    3.3344    1.0000 </r>
       <r>    3.3477    1.0000 </r>
       <r>    3.4965    1.0000 </r>
       <r>    3.5425    1.0000 </r>
       <r>    3.8964    1.0000 </r>
       <r>    3.9211    1.0000 </r>
       <r>    4.0177    1.0000 </r>
       <r>    4.0424    1.0000 </r>
       <r>    4.0514    1.0000 </r>
       <r>    4.0848    1.0000 </r>
       <r>    4.1216    1.0000 </r>
       <r>    4.2888    1.0000 </r>
       <r>    4.3192    1.0000 </r>
       <r>    4.4747    1.0000 </r>
       <r>    4.4858    1.0000 </r>
       <r>    4.6519    1.0000 </r>
       <r>    4.6852    1.0000 </r>
       <r>    4.8531    1.0000 </r>
       <r>    4.8718    1.0000 </r>
       <r>    4.8968    1.0000 </r>
       <r>    4.9224    1.0000 </r>
       <r>    4.9494    1.0000 </r>
       <r>    4.9931    1.0000 </r>
       <r>    5.0972    1.0000 </r>
       <r>    5.2616    1.0000 </r>
       <r>    5.2921    1.0000 </r>
       <r>    5.3915    1.0000 </r>
       <r>    5.4124    1.0000 </r>
       <r>    5.4350    1.0000 </r>
       <r>    5.5024    1.0000 </r>
       <r>    5.5305    1.0000 </r>
       <r>    5.5509    1.0000 </r>
       <r>    5.5854    1.0000 </r>
       <r>    5.6047    1.0000 </r>
       <r>    5.6177    1.0000 </r>
       <r>    5.6290    1.0000 </r>
       <r>    5.7132    1.0000 </r>
       <r>    5.8335    1.0000 </r>
       <r>    5.9845    1.0000 </r>
       <r>    6.0119    1.0000 </r>
       <r>    6.0398    1.0000 </r>
       <r>    6.0675    1.0000 </r>
       <r>    6.1920    1.0000 </r>
       <r>    6.2252    1.0000 </r>
       <r>    6.2667    1.0000 </r>
       <r>    6.3045    1.0000 </r>
       <r>    6.3491    1.0000 </r>
       <r>    6.4329    1.0000 </r>
       <r>    6.4746    1.0000 </r>
       <r>    6.5157    1.0000 </r>
       <r>    6.5631    1.0000 </r>
       <r>    6.6557    1.0000 </r>
       <r>    6.6703    1.0000 </r>
       <r>    6.7232    1.0000 </r>
       <r>    6.7565    1.0000 </r>
       <r>    6.8354    1.0000 </r>
       <r>    6.8606    1.0000 </r>
       <r>    6.9130    1.0000 </r>
       <r>    6.9370    1.0000 </r>
       <r>    7.3132    1.0000 </r>
       <r>    7.4696    1.0000 </r>
       <r>    7.5278    1.0000 </r>
       <r>    7.6331    1.0006 </r>
       <r>    7.9621    1.0246 </r>
       <r>   10.3680   -0.0000 </r>
       <r>   10.4784   -0.0000 </r>
       <r>   10.5498   -0.0000 </r>
       <r>   11.3220   -0.0000 </r>
       <r>   11.3457   -0.0000 </r>
       <r>   11.6420   -0.0000 </r>
       <r>   11.6884   -0.0000 </r>
       <r>   11.7940   -0.0000 </r>
       <r>   12.1928   -0.0000 </r>
       <r>   12.2073   -0.0000 </r>
       <r>   12.8215   -0.0000 </r>
       <r>   12.8398   -0.0000 </r>
       <r>   12.8633   -0.0000 </r>
       <r>   12.8789   -0.0000 </r>
       <r>   13.0455   -0.0000 </r>
       <r>   13.0860   -0.0000 </r>
       <r>   13.1275   -0.0000 </r>
       <r>   13.1715   -0.0000 </r>
       <r>   13.1919   -0.0000 </r>
       <r>   13.2213   -0.0000 </r>
       <r>   13.2705   -0.0000 </r>
       <r>   13.3145   -0.0000 </r>
       <r>   13.5144   -0.0000 </r>
       <r>   13.5381   -0.0000 </r>
       <r>   13.5987   -0.0000 </r>
       <r>   13.6294    0.0000 </r>
       <r>   13.7201    0.0000 </r>
       <r>   13.7656    0.0000 </r>
       <r>   13.7807    0.0000 </r>
       <r>   13.8036    0.0000 </r>
       <r>   13.8715    0.0000 </r>
       <r>   13.9142    0.0000 </r>
       <r>   13.9905    0.0000 </r>
       <r>   14.0784    0.0000 </r>
       <r>   14.1157    0.0000 </r>
       <r>   14.6610    0.0000 </r>
       <r>   14.7268    0.0000 </r>
       <r>   14.7638    0.0000 </r>
       <r>   14.9329    0.0000 </r>
       <r>   15.0006    0.0000 </r>
      </set>
      <set comment="kpoint 6">
       <r>   -6.9875    1.0000 </r>
       <r>   -6.4724    1.0000 </r>
       <r>   -6.4385    1.0000 </r>
       <r>   -5.9424    1.0000 </r>
       <r>   -5.5050    1.0000 </r>
       <r>   -5.3607    1.0000 </r>
       <r>   -5.0691    1.0000 </r>
       <r>   -4.9920    1.0000 </r>
       <r>   -4.9078    1.0000 </r>
       <r>   -4.8606    1.0000 </r>
       <r>   -4.6262    1.0000 </r>
       <r>   -4.5076    1.0000 </r>
       <r>   -4.4494    1.0000 </r>
       <r>   -4.3887    1.0000 </r>
       <r>   -4.0626    1.0000 </r>
       <r>   -3.9659    1.0000 </r>
       <r>   -3.5850    1.0000 </r>
       <r>   -3.5010    1.0000 </r>
       <r>   -3.4615    1.0000 </r>
       <r>   -3.4326    1.0000 </r>
       <r>   -3.3263    1.0000 </r>
       <r>   -3.3045    1.0000 </r>
       <r>   -3.1747    1.0000 </r>
       <r>   -3.0457    1.0000 </r>
       <r>   -2.8861    1.0000 </r>
       <r>   -2.8438    1.0000 </r>
       <r>   -2.7740    1.0000 </r>
       <r>   -2.7392    1.0000 </r>
       <r>   -2.6296    1.0000 </r>
       <r>   -2.3523    1.0000 </r>
       <r>   -2.2900    1.0000 </r>
       <r>   -2.2401    1.0000 </r>
       <r>   -0.2541    1.0000 </r>
       <r>   -0.1287    1.0000 </r>
       <r>    0.4701    1.0000 </r>
       <r>    0.4948    1.0000 </r>
       <r>    0.5421    1.0000 </r>
       <r>    0.5718    1.0000 </r>
       <r>    0.6076    1.0000 </r>
       <r>    0.6485    1.0000 </r>
       <r>    0.7007    1.0000 </r>
       <r>    0.7676    1.0000 </r>
       <r>    0.7932    1.0000 </r>
       <r>    0.8233    1.0000 </r>
       <r>    0.9139    1.0000 </r>
       <r>    1.0108    1.0000 </r>
       <r>    1.1911    1.0000 </r>
       <r>    1.2310    1.0000 </r>
       <r>    1.2659    1.0000 </r>
       <r>    1.2869    1.0000 </r>
       <r>    1.9291    1.0000 </r>
       <r>    1.9868    1.0000 </r>
       <r>    2.0231    1.0000 </r>
       <r>    2.0600    1.0000 </r>
       <r>    2.1086    1.0000 </r>
       <r>    2.1503    1.0000 </r>
       <r>    2.4152    1.0000 </r>
       <r>    2.5444    1.0000 </r>
       <r>    2.5766    1.0000 </r>
       <r>    2.6768    1.0000 </r>
       <r>    2.7487    1.0000 </r>
       <r>    3.1959    1.0000 </r>
[...]
      </set>
     </set>
    </set>
   </array>
  </eigenvalues>
  <separator name="orbital magnetization" >
   <v name="MAGDIPOLOUT">      0.00000000      0.00000000      0.00000000</v>
  </separator>
  <dos>
   <i name="efermi">      8.16102793 </i>
   <total>
    <array>
     <dimension dim="1">gridpoints</dimension>
     <dimension dim="2">spin</dimension>
     <field>energy</field>
     <field>total</field>
     <field>integrated</field>
     <set>
      <set comment="spin 1">
       <r>    -9.3425     0.0000     0.0000 </r>
       <r>    -9.2531     0.0000     0.0000 </r>
       <r>    -9.1637     0.0000     0.0000 </r>
       <r>    -9.0742     0.0000     0.0000 </r>
       <r>    -8.9848    -0.0000    -0.0000 </r>
       <r>    -8.8953    -0.0000    -0.0000 </r>
       <r>    -8.8059    -0.0000    -0.0000 </r>
       <r>    -8.7164    -0.0000    -0.0000 </r>
       <r>    -8.6270    -0.0000    -0.0000 </r>
       <r>    -8.5375    -0.0000    -0.0000 </r>
       <r>    -8.4481    -0.0000    -0.0000 </r>
       <r>    -8.3586    -0.0000    -0.0000 </r>
       <r>    -8.2692    -0.0000    -0.0000 </r>
       <r>    -8.1797    -0.0000    -0.0000 </r>
       <r>    -8.0903    -0.0000    -0.0000 </r>
       <r>    -8.0008    -0.0000    -0.0000 </r>
       <r>    -7.9114    -0.0002    -0.0000 </r>
       <r>    -7.8219    -0.0014    -0.0001 </r>
       <r>    -7.7325    -0.0073    -0.0008 </r>
       <r>    -7.6430    -0.0232    -0.0029 </r>
       <r>    -7.5536    -0.0419    -0.0066 </r>
       <r>    -7.4641    -0.0191    -0.0083 </r>
       <r>    -7.3747     0.1498     0.0051 </r>
       <r>    -7.2852     0.6411     0.0624 </r>
       <r>    -7.1958     1.5747     0.2033 </r>
       <r>    -7.1063     2.8385     0.4572 </r>
       <r>    -7.0169     4.0556     0.8199 </r>
       <r>    -6.9275     4.5719     1.2289 </r>
       <r>    -6.8380     4.0613     1.5922 </r>
       <r>    -6.7486     3.1014     1.8696 </r>
       <r>    -6.6591     2.8040     2.1204 </r>
       <r>    -6.5697     4.2587     2.5013 </r>
       <r>    -6.4802     7.3121     3.1554 </r>
       <r>    -6.3908     9.9253     4.0432 </r>
       <r>    -6.3013    10.0280     4.9401 </r>
       <r>    -6.2119     7.3527     5.5978 </r>
       <r>    -6.1224     3.7225     5.9308 </r>
       <r>    -6.0330     2.1738     6.1252 </r>
       <r>    -5.9435     4.0241     6.4852 </r>
       <r>    -5.8541     7.5380     7.1594 </r>
       <r>    -5.7646    10.3141     8.0820 </r>
       <r>    -5.6752    11.3135     9.0940 </r>
       <r>    -5.5857    11.1464    10.0910 </r>
       <r>    -5.4963    10.8289    11.0596 </r>
       <r>    -5.4068    10.0049    11.9546 </r>
       <r>    -5.3174     8.1299    12.6818 </r>
       <r>    -5.2279     6.8914    13.2982 </r>
       <r>    -5.1385     8.8185    14.0870 </r>
       <r>    -5.0490    13.3331    15.2796 </r>
       <r>    -4.9596    15.9240    16.7040 </r>
       <r>    -4.8701    12.9056    17.8584 </r>
       <r>    -4.7807     6.6340    18.4518 </r>
       <r>    -4.6913     3.5575    18.7700 </r>
       <r>    -4.6018     6.6811    19.3676 </r>
       <r>    -4.5124    12.8278    20.5150 </r>
       <r>    -4.4229    17.6127    22.0904 </r>
       <r>    -4.3335    18.9510    23.7856 </r>
       <r>    -4.2440    16.9034    25.2975 </r>
       <r>    -4.1546    14.9360    26.6335 </r>
       <r>    -4.0651    17.4745    28.1966 </r>
       <r>    -3.9757    22.5751    30.2159 </r>
       <r>    -3.8862    23.0771    32.2801 </r>
       <r>    -3.7968    17.3151    33.8289 </r>
       <r>    -3.7073    11.6046    34.8669 </r>
       <r>    -3.6179    11.4734    35.8932 </r>
       <r>    -3.5284    16.4411    37.3638 </r>
       <r>    -3.4390    21.7611    39.3103 </r>
       <r>    -3.3495    22.4783    41.3209 </r>
       <r>    -3.2601    18.7391    42.9971 </r>
       <r>    -3.1706    15.8504    44.4149 </r>
       <r>    -3.0812    16.7861    45.9164 </r>
       <r>    -2.9917    20.2120    47.7243 </r>
       <r>    -2.9023    24.9880    49.9594 </r>
       <r>    -2.8128    28.7314    52.5294 </r>
       <r>    -2.7234    27.0591    54.9498 </r>
       <r>    -2.6340    19.7658    56.7178 </r>
       <r>    -2.5445    12.2510    57.8136 </r>
       <r>    -2.4551     9.7686    58.6874 </r>
       <r>    -2.3656    12.8848    59.8399 </r>
       <r>    -2.2762    16.8681    61.3487 </r>
       <r>    -2.1867    15.9401    62.7745 </r>
       <r>    -2.0973     9.9830    63.6675 </r>
       <r>    -2.0078     3.8246    64.0096 </r>
       <r>    -1.9184     0.5736    64.0609 </r>
       <r>    -1.8289    -0.2873    64.0352 </r>
       <r>    -1.7395    -0.2504    64.0128 </r>
       <r>    -1.6500    -0.1057    64.0034 </r>
       <r>    -1.5606    -0.0304    64.0006 </r>
       <r>    -1.4711    -0.0062    64.0001 </r>
       <r>    -1.3817    -0.0009    64.0000 </r>
       <r>    -1.2922    -0.0001    64.0000 </r>
       <r>    -1.2028    -0.0000    64.0000 </r>
       <r>    -1.1133    -0.0004    64.0000 </r>
       <r>    -1.0239    -0.0034    63.9997 </r>
       <r>    -0.9344    -0.0155    63.9983 </r>
       <r>    -0.8450    -0.0389    63.9948 </r>
       <r>    -0.7555    -0.0235    63.9927 </r>
       <r>    -0.6661     0.1453    64.0057 </r>
       <r>    -0.5766     0.4484    64.0458 </r>
       <r>    -0.4872     0.6065    64.1000 </r>
       <r>    -0.3978     0.7580    64.1678 </r>
       <r>    -0.3083     2.1985    64.3645 </r>
       <r>    -0.2189     5.8380    64.8867 </r>
       <r>    -0.1294     9.6190    65.7471 </r>
       <r>    -0.0400    10.2428    66.6633 </r>
       <r>     0.0495     7.8719    67.3674 </r>
       <r>     0.1389     6.2311    67.9248 </r>
       <r>     0.2284     8.2588    68.6635 </r>
       <r>     0.3178    13.5076    69.8717 </r>
       <r>     0.4073    19.2779    71.5961 </r>
       <r>     0.4967    22.9942    73.6529 </r>
       <r>     0.5862    24.2132    75.8187 </r>
       <r>     0.6756    25.4005    78.0907 </r>
       <r>     0.7651    28.8796    80.6740 </r>
       <r>     0.8545    32.1963    83.5538 </r>
       <r>     0.9440    31.3016    86.3537 </r>
       <r>     1.0334    28.6986    88.9207 </r>
       <r>     1.1229    30.8255    91.6780 </r>
       <r>     1.2123    37.0728    94.9941 </r>
       <r>     1.3018    38.4550    98.4338 </r>
       <r>     1.3912    29.5122   101.0736 </r>
       <r>     1.4807    15.4375   102.4545 </r>
       <r>     1.5701     4.4312   102.8509 </r>
       <r>     1.6596    -0.5406   102.8025 </r>
       <r>     1.7490    -0.8603   102.7255 </r>
       <r>     1.8384     2.2189   102.9240 </r>
       <r>     1.9279     9.1987   103.7468 </r>
       <r>     2.0173    18.8926   105.4367 </r>
       <r>     2.1068    25.2208   107.6927 </r>
       <r>     2.1962    22.7141   109.7244 </r>
       <r>     2.2857    14.0953   110.9852 </r>
       <r>     2.3751     7.0771   111.6182 </r>
       <r>     2.4646     6.0726   112.1614 </r>
       <r>     2.5540    10.3893   113.0907 </r>
       <r>     2.6435    16.0101   114.5228 </r>
       <r>     2.7329    17.5792   116.0952 </r>
       <r>     2.8224    14.4762   117.3901 </r>
       <r>     2.9118    12.7079   118.5268 </r>
       <r>     3.0013    15.9000   119.9490 </r>
       <r>     3.0907    21.5281   121.8746 </r>
       <r>     3.1802    27.3250   124.3188 </r>
       <r>     3.2696    32.0241   127.1833 </r>
       <r>     3.3591    32.5126   130.0915 </r>
       <r>     3.4485    29.1728   132.7009 </r>
       <r>     3.5380    26.5043   135.0717 </r>
       <r>     3.6274    24.0747   137.2251 </r>
       <r>     3.7169    18.6923   138.8971 </r>
       <r>     3.8063    13.2742   140.0845 </r>
       <r>     3.8958    14.0632   141.3424 </r>
       <r>     3.9852    20.6518   143.1897 </r>
       <r>     4.0746    24.5281   145.3836 </r>
       <r>     4.1641    21.1887   147.2789 </r>
       <r>     4.2535    18.2849   148.9145 </r>
       <r>     4.3430    23.5053   151.0170 </r>
       <r>     4.4324    32.1739   153.8949 </r>
       <r>     4.5219    36.5097   157.1606 </r>
       <r>     4.6113    36.0434   160.3846 </r>
       <r>     4.7008    34.0885   163.4337 </r>
       <r>     4.7902    33.9041   166.4664 </r>
       <r>     4.8797    35.7747   169.6664 </r>
       <r>     4.9691    35.4977   172.8416 </r>
       <r>     5.0586    32.0221   175.7059 </r>
       <r>     5.1480    29.8239   178.3736 </r>
       <r>     5.2375    30.3789   181.0909 </r>
       <r>     5.3269    30.7839   183.8445 </r>
       <r>     5.4164    30.9950   186.6169 </r>
       <r>     5.5058    34.7879   189.7286 </r>
       <r>     5.5953    41.3132   193.4240 </r>
       <r>     5.6847    43.0645   197.2760 </r>
       <r>     5.7742    38.0809   200.6823 </r>
       <r>     5.8636    33.7075   203.6974 </r>
       <r>     5.9531    33.0848   206.6567 </r>
       <r>     6.0425    31.8159   209.5026 </r>
       <r>     6.1320    29.3231   212.1255 </r>
       <r>     6.2214    29.7945   214.7905 </r>
       <r>     6.3108    32.9302   217.7361 </r>
       <r>     6.4003    35.0015   220.8669 </r>
       <r>     6.4897    34.0010   223.9082 </r>
       <r>     6.5792    29.6471   226.5601 </r>
       <r>     6.6686    25.9909   228.8849 </r>
       <r>     6.7581    28.9047   231.4704 </r>
       <r>     6.8475    37.1658   234.7948 </r>
       <r>     6.9370    42.0878   238.5595 </r>
       <r>     7.0264    36.5551   241.8293 </r>
       <r>     7.1159    23.5980   243.9400 </r>
       <r>     7.2053    13.5005   245.1476 </r>
       <r>     7.2948    11.8286   246.2057 </r>
       <r>     7.3842    15.6658   247.6070 </r>
       <r>     7.4737    19.8862   249.3858 </r>
       <r>     7.5631    21.3131   251.2922 </r>
       <r>     7.6526    18.9781   252.9897 </r>
       <r>     7.7420    13.6339   254.2092 </r>
       <r>     7.8315     7.7381   254.9014 </r>
       <r>     7.9209     4.4437   255.2989 </r>
       <r>     8.0104     3.7798   255.6370 </r>
       <r>     8.0998     2.9850   255.9040 </r>
       <r>     8.1893     1.3086   256.0210 </r>
       <r>     8.2787     0.0960   256.0296 </r>
       <r>     8.3682    -0.1923   256.0124 </r>
       <r>     8.4576    -0.1056   256.0030 </r>
       <r>     8.5470    -0.0282   256.0005 </r>
       <r>     8.6365    -0.0046   256.0000 </r>
       <r>     8.7259    -0.0009   256.0000 </r>
       <r>     8.8154    -0.0029   255.9997 </r>
       <r>     8.9048    -0.0121   255.9986 </r>
       <r>     8.9943    -0.0262   255.9963 </r>
       <r>     9.0837    -0.0026   255.9960 </r>
       <r>     9.1732     0.1405   256.0086 </r>
       <r>     9.2626     0.3921   256.0437 </r>
       <r>     9.3521     0.5735   256.0950 </r>
       <r>     9.4415     0.6159   256.1501 </r>
       <r>     9.5310     0.8388   256.2251 </r>
       <r>     9.6204     1.4538   256.3551 </r>
       <r>     9.7099     1.8283   256.5187 </r>
       <r>     9.7993     1.2759   256.6328 </r>
       <r>     9.8888     0.3054   256.6601 </r>
       <r>     9.9782    -0.0762   256.6533 </r>
       <r>    10.0677     0.5584   256.7032 </r>
       <r>    10.1571     2.0376   256.8855 </r>
       <r>    10.2466     3.9127   257.2355 </r>
       <r>    10.3360     5.9549   257.7681 </r>
       <r>    10.4255     8.1060   258.4932 </r>
       <r>    10.5149    10.0872   259.3955 </r>
       <r>    10.6044    11.2419   260.4011 </r>
       <r>    10.6938    10.4998   261.3402 </r>
       <r>    10.7832     7.6257   262.0223 </r>
       <r>    10.8727     3.9494   262.3756 </r>
       <r>    10.9621     1.0114   262.4661 </r>
       <r>    11.0516    -0.4635   262.4246 </r>
       <r>    11.1410    -0.1337   262.4127 </r>
       <r>    11.2305     2.3574   262.6235 </r>
       <r>    11.3199     5.8718   263.1487 </r>
       <r>    11.4094     8.1263   263.8756 </r>
       <r>    11.4988     9.4784   264.7234 </r>
       <r>    11.5883    11.3713   265.7406 </r>
       <r>    11.6777    12.9036   266.8948 </r>
       <r>    11.7672    14.3875   268.1817 </r>
       <r>    11.8566    17.5295   269.7497 </r>
       <r>    11.9461    20.6857   271.6000 </r>
       <r>    12.0355    21.0007   273.4784 </r>
       <r>    12.1250    18.3804   275.1225 </r>
       <r>    12.2144    13.6916   276.3472 </r>
       <r>    12.3039     7.6728   277.0335 </r>
       <r>    12.3933     3.3873   277.3365 </r>
       <r>    12.4828     5.0252   277.7860 </r>
       <r>    12.5722    12.5143   278.9054 </r>
       <r>    12.6617    20.7659   280.7629 </r>
       <r>    12.7511    25.7542   283.0665 </r>
       <r>    12.8406    27.9123   285.5632 </r>
       <r>    12.9300    29.0803   288.1644 </r>
       <r>    13.0194    31.2474   290.9594 </r>
       <r>    13.1089    34.6027   294.0546 </r>
       <r>    13.1983    34.1896   297.1128 </r>
       <r>    13.2878    26.3030   299.4655 </r>
       <r>    13.3772    16.5485   300.9457 </r>
       <r>    13.4667    14.9541   302.2833 </r>
       <r>    13.5561    23.5929   304.3937 </r>
       <r>    13.6456    33.2068   307.3640 </r>
       <r>    13.7350    34.7197   310.4696 </r>
       <r>    13.8245    29.8238   313.1373 </r>
       <r>    13.9139    26.7917   315.5337 </r>
       <r>    14.0034    29.1345   318.1397 </r>
       <r>    14.0928    32.0191   321.0038 </r>
       <r>    14.1823    29.2240   323.6178 </r>
       <r>    14.2717    20.1603   325.4211 </r>
       <r>    14.3612     9.5801   326.2780 </r>
       <r>    14.4506     2.9168   326.5389 </r>
       <r>    14.5401     3.0549   326.8122 </r>
       <r>    14.6295     9.7825   327.6872 </r>
       <r>    14.7190    18.3983   329.3329 </r>
       <r>    14.8084    21.8064   331.2834 </r>
       <r>    14.8979    18.4108   332.9302 </r>
       <r>    14.9873    12.3517   334.0351 </r>
       <r>    15.0768     6.6192   334.6271 </r>
       <r>    15.1662     2.2479   334.8282 </r>
       <r>    15.2556     0.4953   334.8725 </r>
       <r>    15.3451     1.7613   335.0301 </r>
       <r>    15.4345     4.0219   335.3898 </r>
       <r>    15.5240     4.3398   335.7780 </r>
       <r>    15.6134     2.4142   335.9940 </r>
       <r>    15.7029     0.4848   336.0373 </r>
       <r>    15.7923    -0.1978   336.0196 </r>
       <r>    15.8818    -0.1606   336.0053 </r>
       <r>    15.9712    -0.0492   336.0009 </r>
       <r>    16.0607    -0.0086   336.0001 </r>
       <r>    16.1501    -0.0009   336.0000 </r>
       <r>    16.2396    -0.0001   336.0000 </r>
       <r>    16.3290    -0.0000   336.0000 </r>
       <r>    16.4185    -0.0000   336.0000 </r>
       <r>    16.5079    -0.0000   336.0000 </r>
       <r>    16.5974    -0.0000   336.0000 </r>
       <r>    16.6868    -0.0000   336.0000 </r>
       <r>    16.7763    -0.0000   336.0000 </r>
       <r>    16.8657     0.0000   336.0000 </r>
       <r>    16.9552     0.0000   336.0000 </r>
       <r>    17.0446     0.0000   336.0000 </r>
       <r>    17.1341     0.0000   336.0000 </r>
       <r>    17.2235     0.0000   336.0000 </r>
       <r>    17.3130     0.0000   336.0000 </r>
       <r>    17.4024     0.0000   336.0000 </r>
       <r>    17.4918     0.0000   336.0000 </r>
      </set>
     </set>
    </array>
   </total>
  </dos>
 </calculation>
 <structure name="finalpos" >
  <crystal>
   <varray name="basis" >
    <v>       8.74331558       0.00000000       0.00000000 </v>
    <v>       0.00000000       8.74331558       0.00000000 </v>
    <v>       0.00000000       0.00000000       8.74331558 </v>
   </varray>
   <i name="volume">    668.38771987 </i>
   <varray name="rec_basis" >
    <v>       0.11437309       0.00000000       0.00000000 </v>
    <v>       0.00000000       0.11437309       0.00000000 </v>
    <v>       0.00000000       0.00000000       0.11437309 </v>
   </varray>
  </crystal>
  <varray name="positions" >
   <v>       0.12597230       0.12419102       0.12234319 </v>
   <v>       0.12361498       0.37769865       0.37475749 </v>
   <v>       0.37566220       0.12303186       0.37427142 </v>
   <v>       0.37269346       0.37616856       0.12862361 </v>
   <v>       0.12148302       0.12358801       0.62380168 </v>
   <v>       0.12613107       0.37222063       0.87762345 </v>
   <v>       0.37561383       0.12467213       0.87176632 </v>
   <v>       0.37632511       0.37358969       0.62639164 </v>
   <v>       0.12290247       0.62906304       0.12436745 </v>
   <v>       0.12675472       0.87192892       0.37854492 </v>
   <v>       0.37596421       0.62507818       0.37692325 </v>
   <v>       0.37664557       0.87284887       0.12768121 </v>
   <v>       0.12562064       0.62339094       0.62660357 </v>
   <v>       0.12607541       0.87524841       0.87391912 </v>
   <v>       0.37366496       0.62515892       0.87676179 </v>
   <v>       0.37469032       0.87549465       0.62559785 </v>
   <v>       0.62773448       0.12552435       0.12534171 </v>
   <v>       0.62498966       0.37243601       0.38024315 </v>
   <v>       0.87234933       0.12575801       0.37877609 </v>
   <v>       0.87533866       0.37560015       0.12370894 </v>
   <v>       0.62674573       0.12429783       0.62470997 </v>
   <v>       0.62830493       0.37249194       0.87384605 </v>
   <v>       0.87502240       0.12518495       0.87485250 </v>
   <v>       0.87593479       0.37457304       0.62592398 </v>
   <v>       0.63054583       0.62859234       0.12384243 </v>
   <v>       0.62722361       0.87418900       0.37528130 </v>
   <v>       0.87297642       0.62664588       0.37805472 </v>
   <v>       0.87841270       0.87548851       0.12136122 </v>
   <v>       0.62503383       0.62537557       0.62148865 </v>
   <v>       0.62525350       0.87764959       0.87414678 </v>
   <v>       0.87404502       0.62468632       0.87249198 </v>
   <v>       0.87714133       0.87554615       0.62871372 </v>
   <v>       0.00200836       0.99967478       0.99776629 </v>
   <v>       0.00266054       0.24757731       0.24974805 </v>
   <v>       0.25122094       0.99688685       0.24765039 </v>
   <v>       0.24604868       0.25133968       0.99907408 </v>
   <v>       0.99690207       0.00390941       0.50059385 </v>
   <v>       0.00081292       0.25077998       0.75069035 </v>
   <v>       0.24702205       0.99872303       0.75087230 </v>
   <v>       0.24579376       0.25028835       0.49987652 </v>
   <v>       0.99984455       0.50263198       0.99755791 </v>
   <v>       0.99873317       0.74565180       0.25278595 </v>
   <v>       0.24755469       0.50216510       0.25038499 </v>
   <v>       0.24921198       0.74848265       0.99887207 </v>
   <v>       0.99851885       0.50086654       0.50240379 </v>
   <v>       0.00143899       0.75047568       0.74794908 </v>
   <v>       0.24551473       0.50397734       0.75171572 </v>
   <v>       0.24981009       0.75067365       0.49859095 </v>
   <v>       0.50091395       0.00120108       0.99949713 </v>
   <v>       0.50197100       0.25503891       0.24949069 </v>
   <v>       0.74680875       0.99878376       0.25055598 </v>
   <v>       0.75115851       0.25072087       0.00449208 </v>
   <v>       0.50267573       0.00130730       0.49906127 </v>
   <v>       0.49995047       0.25104750       0.74834662 </v>
   <v>       0.75131690       0.99824492       0.74937485 </v>
   <v>       0.74638404       0.25022268       0.50001584 </v>
   <v>       0.49844230       0.50274398       0.00274834 </v>
   <v>       0.50054862       0.75036143       0.24998201 </v>
   <v>       0.74984652       0.49974495       0.25178958 </v>
   <v>       0.74743312       0.75188113       0.00278522 </v>
   <v>       0.50427120       0.50130032       0.50231275 </v>
   <v>       0.49700847       0.75187860       0.75147548 </v>
   <v>       0.74646881       0.49925192       0.74533077 </v>
   <v>       0.74961300       0.74960376       0.50063427 </v>
  </varray>
 </structure>
</modeling>
