unknown system                          
           1
     8.743316    0.000000    0.000000
     0.000000    8.743316    0.000000
     0.000000    0.000000    8.743316
   C    Si
    32    32
Direct configuration=     1
   0.12597230  0.12419102  0.12234319
   0.12361498  0.37769865  0.37475749
   0.37566220  0.12303186  0.37427142
   0.37269346  0.37616856  0.12862361
   0.12148302  0.12358801  0.62380168
   0.12613107  0.37222063  0.87762345
   0.37561383  0.12467213  0.87176632
   0.37632511  0.37358969  0.62639164
   0.12290247  0.62906304  0.12436745
   0.12675472  0.87192892  0.37854492
   0.37596421  0.62507818  0.37692325
   0.37664557  0.87284887  0.12768121
   0.12562064  0.62339094  0.62660357
   0.12607541  0.87524841  0.87391912
   0.37366496  0.62515892  0.87676179
   0.37469032  0.87549465  0.62559785
   0.62773448  0.12552435  0.12534171
   0.62498966  0.37243601  0.38024315
   0.87234933  0.12575801  0.37877609
   0.87533866  0.37560015  0.12370894
   0.62674573  0.12429783  0.62470997
   0.62830493  0.37249194  0.87384605
   0.87502240  0.12518495  0.87485250
   0.87593479  0.37457304  0.62592398
   0.63054583  0.62859234  0.12384243
   0.62722361  0.87418900  0.37528130
   0.87297642  0.62664588  0.37805472
   0.87841270  0.87548851  0.12136122
   0.62503383  0.62537557  0.62148865
   0.62525350  0.87764959  0.87414678
   0.87404502  0.62468632  0.87249198
   0.87714133  0.87554615  0.62871372
   0.00200836  0.99967478  0.99776629
   0.00266054  0.24757731  0.24974805
   0.25122094  0.99688685  0.24765039
   0.24604868  0.25133968  0.99907408
   0.99690207  0.00390941  0.50059385
   0.00081292  0.25077998  0.75069035
   0.24702205  0.99872303  0.75087230
   0.24579376  0.25028835  0.49987652
   0.99984455  0.50263198  0.99755791
   0.99873317  0.74565180  0.25278595
   0.24755469  0.50216510  0.25038499
   0.24921198  0.74848265  0.99887207
   0.99851885  0.50086654  0.50240379
   0.00143899  0.75047568  0.74794908
   0.24551473  0.50397734  0.75171572
   0.24981009  0.75067365  0.49859095
   0.50091395  0.00120108  0.99949713
   0.50197100  0.25503891  0.24949069
   0.74680875  0.99878376  0.25055598
   0.75115851  0.25072087  0.00449208
   0.50267573  0.00130730  0.49906127
   0.49995047  0.25104750  0.74834662
   0.75131690  0.99824492  0.74937485
   0.74638404  0.25022268  0.50001584
   0.49844230  0.50274398  0.00274834
   0.50054862  0.75036143  0.24998201
   0.74984652  0.49974495  0.25178958
   0.74743312  0.75188113  0.00278522
   0.50427120  0.50130032  0.50231275
   0.49700847  0.75187860  0.75147548
   0.74646881  0.49925192  0.74533077
   0.74961300  0.74960376  0.50063427
