       N       E                     dE             d eps       ncg     rms          rms(c)
DAV:   1     0.672254486326E+03    0.67225E+03   -0.99581E+04  4704   0.111E+03
DAV:   2    -0.460155526680E+03   -0.11324E+04   -0.10729E+04  5816   0.221E+02
DAV:   3    -0.535746103764E+03   -0.75591E+02   -0.74861E+02  5664   0.563E+01
DAV:   4    -0.537434637998E+03   -0.16885E+01   -0.16813E+01  5688   0.911E+00
DAV:   5    -0.537482215743E+03   -0.47578E-01   -0.47498E-01  5624   0.145E+00    0.495E+01
DAV:   6    -0.479980873625E+03    0.57501E+02   -0.19219E+02  5352   0.237E+01    0.220E+01
DAV:   7    -0.478668243065E+03    0.13126E+01   -0.16400E+01  5856   0.726E+00    0.984E+00
DAV:   8    -0.478434008688E+03    0.23423E+00   -0.10637E+00  5432   0.202E+00    0.285E+00
DAV:   9    -0.478416927013E+03    0.17082E-01   -0.15855E-01  5480   0.883E-01    0.467E-01
DAV:  10    -0.478419454658E+03   -0.25276E-02   -0.14057E-02  5744   0.277E-01    0.260E-01
DAV:  11    -0.478420726485E+03   -0.12718E-02   -0.25283E-03  5264   0.128E-01    0.104E-01
DAV:  12    -0.478420819450E+03   -0.92965E-04   -0.40724E-04  6176   0.509E-02    0.449E-02
DAV:  13    -0.478420840473E+03   -0.21023E-04   -0.12913E-04  5128   0.265E-02    0.113E-02
DAV:  14    -0.478420844574E+03   -0.41010E-05   -0.67899E-06  5608   0.638E-03    0.550E-03
DAV:  15    -0.478420846281E+03   -0.17071E-05   -0.28331E-06  5608   0.371E-03    0.351E-03
DAV:  16    -0.478420846236E+03    0.44482E-07   -0.33085E-07  5864   0.153E-03    0.130E-03
DAV:  17    -0.478420846593E+03   -0.35643E-06   -0.11690E-07  5240   0.749E-04    0.740E-04
DAV:  18    -0.478420846589E+03    0.38563E-08   -0.62692E-09  2760   0.219E-04
   1 F= -.47842085E+03 E0= -.47842446E+03  d E =0.108359E-01
