<?xml version="1.0" encoding="ISO-8859-1"?>
<modeling>
 <generator>
  <i name="program" type="string">vasp </i>
  <i name="version" type="string">6.2.1  </i>
  <i name="subversion" type="string">16May21 (build Jun 06 2020 10:27:25) complex                          parallel </i>
  <i name="platform" type="string">LinuxIFC </i>
  <i name="date" type="string">2024 01 25 </i>
  <i name="time" type="string">17:07:29 </i>
 </generator>
 <incar>
  <i type="int" name="NELM">    60</i>
  <i type="int" name="IBRION">     1</i>
  <i name="EDIFF">      0.00000001</i>
  <i type="int" name="NSW">     0</i>
  <i type="int" name="ISIF">     3</i>
  <i type="int" name="ISYM">     0</i>
  <i type="logical" name="LWAVE"> F  </i>
  <i type="logical" name="LCHARG"> F  </i>
  <i type="string" name="GGA">PE</i>
 </incar>
 <primitive_cell>
  <structure name="primitive_cell" >
   <crystal>
    <varray name="basis" >
     <v>       8.74331558       0.00000000       0.00000000 </v>
     <v>       0.00000000       8.74331558       0.00000000 </v>
     <v>       0.00000000       0.00000000       8.74331558 </v>
    </varray>
    <i name="volume">    668.38771987 </i>
    <varray name="rec_basis" >
     <v>       0.11437309       0.00000000       0.00000000 </v>
     <v>       0.00000000       0.11437309       0.00000000 </v>
     <v>       0.00000000       0.00000000       0.11437309 </v>
    </varray>
   </crystal>
   <varray name="positions" >
    <v>       0.13020617       0.12507343       0.12236912 </v>
    <v>       0.12743351       0.38028258       0.38045705 </v>
    <v>       0.37175438       0.12611413       0.36852718 </v>
    <v>       0.37992438       0.37815544       0.12086660 </v>
    <v>       0.12520821       0.12221081       0.62580316 </v>
    <v>       0.12028047       0.37441060       0.88169563 </v>
    <v>       0.38165276       0.12634978       0.87533739 </v>
    <v>       0.37690690       0.37665310       0.62406790 </v>
    <v>       0.12003872       0.62860515       0.12925704 </v>
    <v>       0.12299534       0.87993194       0.37692792 </v>
    <v>       0.36985452       0.63173362       0.37784393 </v>
    <v>       0.37581839       0.87559481       0.11445204 </v>
    <v>       0.12920570       0.62356159       0.61498586 </v>
    <v>       0.12828579       0.86895471       0.87740356 </v>
    <v>       0.37061579       0.62660110       0.87536798 </v>
    <v>       0.37885136       0.87374854       0.62296146 </v>
    <v>       0.62276151       0.12583067       0.12705659 </v>
    <v>       0.61717892       0.37567732       0.37317114 </v>
    <v>       0.87032818       0.11399140       0.38298845 </v>
    <v>       0.88307306       0.37051556       0.12131536 </v>
    <v>       0.62990382       0.12777328       0.62589789 </v>
    <v>       0.62026798       0.37770020       0.87528823 </v>
    <v>       0.88594484       0.12707765       0.88233388 </v>
    <v>       0.87359518       0.37462987       0.62528846 </v>
    <v>       0.62648335       0.63172690       0.12633562 </v>
    <v>       0.63313146       0.88109084       0.37184714 </v>
    <v>       0.87730421       0.62545316       0.37816009 </v>
    <v>       0.87278430       0.87411209       0.12119056 </v>
    <v>       0.63369502       0.62246568       0.62111336 </v>
    <v>       0.63336923       0.87141617       0.87747686 </v>
    <v>       0.87746695       0.62691793       0.87870907 </v>
    <v>       0.87475720       0.88022146       0.61651607 </v>
    <v>       0.99489383       0.00666252       0.99533455 </v>
    <v>       0.99941259       0.24364793       0.25661386 </v>
    <v>       0.24751311       0.99948429       0.24910980 </v>
    <v>       0.25426775       0.25155074       0.99783974 </v>
    <v>       0.99598229       0.00381254       0.49540609 </v>
    <v>       0.99707674       0.24733610       0.74616224 </v>
    <v>       0.25568520       0.00020173       0.75658997 </v>
    <v>       0.24659763       0.25127554       0.50468008 </v>
    <v>       0.99332170       0.49452425       0.00203728 </v>
    <v>       0.99435492       0.74974312       0.25146976 </v>
    <v>       0.24797225       0.50561521       0.24821461 </v>
    <v>       0.24750245       0.75169149       0.99670488 </v>
    <v>       0.99573927       0.50272993       0.50011773 </v>
    <v>       0.99122976       0.74900620       0.75078174 </v>
    <v>       0.25096232       0.50543269       0.75103674 </v>
    <v>       0.24538934       0.74807427       0.49740771 </v>
    <v>       0.49307260       0.00013538       0.00253158 </v>
    <v>       0.50399390       0.25426084       0.25036926 </v>
    <v>       0.74005363       0.00020733       0.24229273 </v>
    <v>       0.74564997       0.23958823       0.99851815 </v>
    <v>       0.49708178       0.99927562       0.49878691 </v>
    <v>       0.49578130       0.24313141       0.74536217 </v>
    <v>       0.75222667       0.00562497       0.73866273 </v>
    <v>       0.75086764       0.24682048       0.49838703 </v>
    <v>       0.49875003       0.50011023       0.99719793 </v>
    <v>       0.50163643       0.74549402       0.24843505 </v>
    <v>       0.75027259       0.50619483       0.24898933 </v>
    <v>       0.75692498       0.75084147       0.00096755 </v>
    <v>       0.50527041       0.50169545       0.49907559 </v>
    <v>       0.50581884       0.74577479       0.74699116 </v>
    <v>       0.75855386       0.51225748       0.75140604 </v>
    <v>       0.74662286       0.74936013       0.50258694 </v>
   </varray>
  </structure>
  <varray name="primitive_index" >
   <v type="int" >        1 </v>
   <v type="int" >        2 </v>
   <v type="int" >        3 </v>
   <v type="int" >        4 </v>
   <v type="int" >        5 </v>
   <v type="int" >        6 </v>
   <v type="int" >        7 </v>
   <v type="int" >        8 </v>
   <v type="int" >        9 </v>
   <v type="int" >       10 </v>
   <v type="int" >       11 </v>
   <v type="int" >       12 </v>
   <v type="int" >       13 </v>
   <v type="int" >       14 </v>
   <v type="int" >       15 </v>
   <v type="int" >       16 </v>
   <v type="int" >       17 </v>
   <v type="int" >       18 </v>
   <v type="int" >       19 </v>
   <v type="int" >       20 </v>
   <v type="int" >       21 </v>
   <v type="int" >       22 </v>
   <v type="int" >       23 </v>
   <v type="int" >       24 </v>
   <v type="int" >       25 </v>
   <v type="int" >       26 </v>
   <v type="int" >       27 </v>
   <v type="int" >       28 </v>
   <v type="int" >       29 </v>
   <v type="int" >       30 </v>
   <v type="int" >       31 </v>
   <v type="int" >       32 </v>
   <v type="int" >       33 </v>
   <v type="int" >       34 </v>
   <v type="int" >       35 </v>
   <v type="int" >       36 </v>
   <v type="int" >       37 </v>
   <v type="int" >       38 </v>
   <v type="int" >       39 </v>
   <v type="int" >       40 </v>
   <v type="int" >       41 </v>
   <v type="int" >       42 </v>
   <v type="int" >       43 </v>
   <v type="int" >       44 </v>
   <v type="int" >       45 </v>
   <v type="int" >       46 </v>
   <v type="int" >       47 </v>
   <v type="int" >       48 </v>
   <v type="int" >       49 </v>
   <v type="int" >       50 </v>
   <v type="int" >       51 </v>
   <v type="int" >       52 </v>
   <v type="int" >       53 </v>
   <v type="int" >       54 </v>
   <v type="int" >       55 </v>
   <v type="int" >       56 </v>
   <v type="int" >       57 </v>
   <v type="int" >       58 </v>
   <v type="int" >       59 </v>
   <v type="int" >       60 </v>
   <v type="int" >       61 </v>
   <v type="int" >       62 </v>
   <v type="int" >       63 </v>
   <v type="int" >       64 </v>
  </varray>
 </primitive_cell>
 <kpoints>
  <generation param="Monkhorst-Pack">
   <v type="int" name="divisions">       3        3        3 </v>
   <v name="usershift">      0.00000000       0.00000000       0.00000000 </v>
   <v name="genvec1">      0.33333333       0.00000000       0.00000000 </v>
   <v name="genvec2">      0.00000000       0.33333333       0.00000000 </v>
   <v name="genvec3">      0.00000000       0.00000000       0.33333333 </v>
   <v name="shift">      0.00000000       0.00000000       0.00000000 </v>
  </generation>
  <varray name="kpointlist" >
   <v>       0.00000000       0.00000000       0.00000000 </v>
   <v>       0.33333333       0.00000000       0.00000000 </v>
   <v>       0.00000000       0.33333333       0.00000000 </v>
   <v>       0.00000000       0.00000000       0.33333333 </v>
   <v>       0.33333333       0.33333333       0.00000000 </v>
   <v>       0.00000000       0.33333333       0.33333333 </v>
   <v>       0.33333333       0.00000000       0.33333333 </v>
   <v>      -0.33333333       0.33333333       0.00000000 </v>
   <v>      -0.33333333       0.00000000       0.33333333 </v>
   <v>       0.00000000      -0.33333333       0.33333333 </v>
   <v>       0.33333333       0.33333333       0.33333333 </v>
   <v>      -0.33333333       0.33333333       0.33333333 </v>
   <v>      -0.33333333      -0.33333333       0.33333333 </v>
   <v>       0.33333333      -0.33333333       0.33333333 </v>
  </varray>
  <varray name="weights" >
   <v>       0.03703704 </v>
   <v>       0.07407407 </v>
   <v>       0.07407407 </v>
   <v>       0.07407407 </v>
   <v>       0.07407407 </v>
   <v>       0.07407407 </v>
   <v>       0.07407407 </v>
   <v>       0.07407407 </v>
   <v>       0.07407407 </v>
   <v>       0.07407407 </v>
   <v>       0.07407407 </v>
   <v>       0.07407407 </v>
   <v>       0.07407407 </v>
   <v>       0.07407407 </v>
  </varray>
 </kpoints>
 <parameters>
  <separator name="general" >
   <i type="string" name="SYSTEM">unknown system</i>
   <i type="logical" name="LCOMPAT"> F  </i>
  </separator>
  <separator name="electronic" >
   <i type="string" name="PREC">normal</i>
   <i name="ENMAX">    400.00000000</i>
   <i name="ENAUG">    644.87300000</i>
   <i name="EDIFF">      0.00000001</i>
   <i type="int" name="IALGO">    38</i>
   <i type="int" name="IWAVPR">    10</i>
   <i type="int" name="NBANDS">   168</i>
   <i type="int" name="NBANDSLOW">    -1</i>
   <i type="int" name="NBANDSHIGH">    -1</i>
   <i name="NELECT">    256.00000000</i>
   <i type="int" name="TURBO">     0</i>
   <i type="int" name="IRESTART">     0</i>
   <i type="int" name="NREBOOT">     0</i>
   <i type="int" name="NMIN">     0</i>
   <i name="EREF">      0.00000000</i>
   <separator name="electronic smearing" >
    <i type="int" name="ISMEAR">     1</i>
    <i name="SIGMA">      0.20000000</i>
    <i name="KSPACING">      0.50000000</i>
    <i type="logical" name="KGAMMA"> T  </i>
    <i type="logical" name="KBLOWUP"> T  </i>
   </separator>
   <separator name="electronic projectors" >
    <i type="logical" name="LREAL"> F  </i>
    <v name="ROPT">      0.00000000      0.00000000</v>
    <i type="int" name="LMAXPAW">  -100</i>
    <i type="int" name="LMAXMIX">     2</i>
    <i type="logical" name="NLSPLINE"> F  </i>
   </separator>
   <separator name="electronic startup" >
    <i type="int" name="ISTART">     0</i>
    <i type="int" name="ICHARG">     2</i>
    <i type="int" name="INIWAV">     1</i>
   </separator>
   <separator name="electronic spin" >
    <i type="int" name="ISPIN">     1</i>
    <i type="logical" name="LNONCOLLINEAR"> F  </i>
    <v name="MAGMOM">      1.00000000      1.00000000      1.00000000      1.00000000      1.00000000      1.00000000      1.00000000      1.00000000      1.00000000      1.00000000      1.00000000      1.00000000      1.00000000      1.00000000      1.00000000      1.00000000      1.00000000      1.00000000      1.00000000      1.00000000
      1.00000000      1.00000000      1.00000000      1.00000000      1.00000000      1.00000000      1.00000000      1.00000000      1.00000000      1.00000000      1.00000000      1.00000000      1.00000000      1.00000000      1.00000000      1.00000000      1.00000000      1.00000000      1.00000000      1.00000000
      1.00000000      1.00000000      1.00000000      1.00000000      1.00000000      1.00000000      1.00000000      1.00000000      1.00000000      1.00000000      1.00000000      1.00000000      1.00000000      1.00000000      1.00000000      1.00000000      1.00000000      1.00000000      1.00000000      1.00000000
      1.00000000      1.00000000      1.00000000      1.00000000</v>
    <i name="NUPDOWN">     -1.00000000</i>
    <i type="logical" name="LSORBIT"> F  </i>
    <v name="SAXIS">      0.00000000      0.00000000      1.00000000</v>
    <i type="logical" name="LSPIRAL"> F  </i>
    <v name="QSPIRAL">      0.00000000      0.00000000      0.00000000</v>
    <i type="logical" name="LZEROZ"> F  </i>
   </separator>
   <separator name="electronic exchange-correlation" >
    <i type="logical" name="LASPH"> F  </i>
    <i type="logical" name="LMETAGGA"> F  </i>
   </separator>
   <separator name="electronic convergence" >
    <i type="int" name="NELM">    60</i>
    <i type="int" name="NELMDL">    -5</i>
    <i type="int" name="NELMIN">     2</i>
    <i name="ENINI">    400.00000000</i>
    <separator name="electronic convergence detail" >
     <i type="logical" name="LDIAG"> T  </i>
     <i type="logical" name="LSUBROT"> F  </i>
     <i name="WEIMIN">      0.00000000</i>
     <i name="EBREAK">      0.00000000</i>
     <i name="DEPER">      0.30000000</i>
     <i type="int" name="NRMM">     4</i>
     <i name="TIME">      0.40000000</i>
    </separator>
   </separator>
   <separator name="electronic mixer" >
    <i name="AMIX">      0.40000000</i>
    <i name="BMIX">      1.00000000</i>
    <i name="AMIN">      0.10000000</i>
    <i name="AMIX_MAG">      1.60000000</i>
    <i name="BMIX_MAG">      1.00000000</i>
    <separator name="electronic mixer details" >
     <i type="int" name="IMIX">     4</i>
     <i type="logical" name="MIXFIRST"> F  </i>
     <i type="int" name="MAXMIX">   -45</i>
     <i name="WC">    100.00000000</i>
     <i type="int" name="INIMIX">     1</i>
     <i type="int" name="MIXPRE">     1</i>
     <i type="int" name="MREMOVE">     5</i>
    </separator>
   </separator>
   <separator name="electronic dipolcorrection" >
    <i type="logical" name="LDIPOL"> F  </i>
    <i type="logical" name="LMONO"> F  </i>
    <i type="int" name="IDIPOL">     0</i>
    <i name="EPSILON">      1.00000000</i>
    <v name="DIPOL">   -100.00000000   -100.00000000   -100.00000000</v>
    <i name="EFIELD">      0.00000000</i>
   </separator>
  </separator>
  <separator name="grids" >
   <i type="int" name="NGX">    48</i>
   <i type="int" name="NGY">    48</i>
   <i type="int" name="NGZ">    48</i>
   <i type="int" name="NGXF">    96</i>
   <i type="int" name="NGYF">    96</i>
   <i type="int" name="NGZF">    96</i>
   <i type="logical" name="ADDGRID"> F  </i>
  </separator>
  <separator name="ionic" >
   <i type="int" name="NSW">     0</i>
   <i type="int" name="IBRION">    -1</i>
   <i type="int" name="MDALGO">     0</i>
   <i type="int" name="ISIF">     3</i>
   <i name="PSTRESS">      0.00000000</i>
   <i name="EDIFFG">      0.00000010</i>
   <i type="int" name="NFREE">     0</i>
   <i name="POTIM">      0.50000000</i>
   <i name="SMASS">     -3.00000000</i>
   <i name="SCALEE">      1.00000000</i>
  </separator>
  <separator name="ionic md" >
   <i name="TEBEG">      0.00010000</i>
   <i name="TEEND">      0.00010000</i>
   <i type="int" name="NBLOCK">     1</i>
   <i type="int" name="KBLOCK">     1</i>
   <i type="int" name="NPACO">   256</i>
   <i name="APACO">     16.00000000</i>
  </separator>
  <separator name="symmetry" >
   <i type="int" name="ISYM">     0</i>
   <i name="SYMPREC">      0.00001000</i>
  </separator>
  <separator name="dos" >
   <i type="int" name="LORBIT">     0</i>
   <v name="RWIGS">     -1.00000000     -1.00000000</v>
   <i type="int" name="NEDOS">   301</i>
   <i name="EMIN">     10.00000000</i>
   <i name="EMAX">    -10.00000000</i>
   <i name="EFERMI">      0.00000000</i>
  </separator>
  <separator name="writing" >
   <i type="int" name="NWRITE">     2</i>
   <i type="logical" name="LWAVE"> F  </i>
   <i type="logical" name="LDOWNSAMPLE"> F  </i>
   <i type="logical" name="LCHARG"> F  </i>
   <i type="logical" name="LPARD"> F  </i>
   <i type="logical" name="LVTOT"> F  </i>
   <i type="logical" name="LVHAR"> F  </i>
   <i type="logical" name="LELF"> F  </i>
   <i type="logical" name="LOPTICS"> F  </i>
   <v name="STM">      0.00000000      0.00000000      0.00000000      0.00000000      0.00000000      0.00000000      0.00000000</v>
  </separator>
  <separator name="performance" >
   <i type="int" name="NPAR">     8</i>
   <i type="int" name="NSIM">     4</i>
   <i type="int" name="NBLK">    -1</i>
   <i type="logical" name="LPLANE"> T  </i>
   <i type="logical" name="LSCALAPACK"> T  </i>
   <i type="logical" name="LSCAAWARE"> F  </i>
   <i type="logical" name="LSCALU"> F  </i>
   <i type="logical" name="LASYNC"> F  </i>
   <i type="logical" name="LORBITALREAL"> F  </i>
  </separator>
  <separator name="miscellaneous" >
   <i type="int" name="IDIOT">     3</i>
   <i type="int" name="PHON_NSTRUCT">    -1</i>
   <i type="logical" name="LMUSIC"> F  </i>
   <v name="POMASS">     12.01100000     28.08500000</v>
   <v name="DARWINR">      0.00000000      0.00000000</v>
   <v name="DARWINV">      1.00000000      1.00000000</v>
   <i type="logical" name="LCORR"> T  </i>
  </separator>
  <i type="logical" name="GGA_COMPAT"> T  </i>
  <i type="logical" name="LBERRY"> F  </i>
  <i type="int" name="ICORELEVEL">     0</i>
  <i type="logical" name="LDAU"> F  </i>
  <i type="int" name="I_CONSTRAINED_M">     0</i>
  <separator name="electronic exchange-correlation" >
   <i type="string" name="GGA">PE</i>
   <i type="int" name="VOSKOWN">     0</i>
   <i type="logical" name="LHFCALC"> F  </i>
   <i type="string" name="PRECFOCK"></i>
   <i type="logical" name="LSYMGRAD"> F  </i>
   <i type="logical" name="LHFONE"> F  </i>
   <i type="logical" name="LRHFCALC"> F  </i>
   <i type="logical" name="LTHOMAS"> F  </i>
   <i type="logical" name="LMODELHF"> F  </i>
   <i type="logical" name="LFOCKACE"> F  </i>
   <i name="ENCUT4O">     -1.00000000</i>
   <i type="int" name="EXXOEP">     0</i>
   <i type="int" name="FOURORBIT">     0</i>
   <i name="AEXX">      0.00000000</i>
   <i name="HFALPHA">      0.00000000</i>
   <i name="MCALPHA">      0.00000000</i>
   <i name="ALDAX">      1.00000000</i>
   <i name="AGGAX">      1.00000000</i>
   <i name="ALDAC">      1.00000000</i>
   <i name="AGGAC">      1.00000000</i>
   <i type="int" name="NKREDX">     1</i>
   <i type="int" name="NKREDY">     1</i>
   <i type="int" name="NKREDZ">     1</i>
   <i type="logical" name="SHIFTRED"> F  </i>
   <i type="logical" name="ODDONLY"> F  </i>
   <i type="logical" name="EVENONLY"> F  </i>
   <i type="int" name="LMAXFOCK">     0</i>
   <i type="int" name="NMAXFOCKAE">     0</i>
   <i type="logical" name="LFOCKAEDFT"> F  </i>
   <i name="HFSCREEN">      0.00000000</i>
   <i name="HFSCREENC">      0.00000000</i>
   <i type="int" name="NBANDSGWLOW">     0</i>
  </separator>
  <separator name="vdW DFT" >
   <i type="logical" name="LUSE_VDW"> F  </i>
   <i name="Zab_VDW">     -0.84910000</i>
   <i name="PARAM1">      0.12340000</i>
   <i name="PARAM2">      1.00000000</i>
   <i name="PARAM3">      0.00000000</i>
  </separator>
  <separator name="model GW" >
   <i type="int" name="MODEL_GW">     0</i>
   <i name="MODEL_EPS0">      6.26613487</i>
   <i name="MODEL_ALPHA">      1.00000000</i>
  </separator>
  <separator name="linear response parameters" >
   <i type="logical" name="LEPSILON"> F  </i>
   <i type="logical" name="LRPA"> F  </i>
   <i type="logical" name="LNABLA"> F  </i>
   <i type="logical" name="LVEL"> F  </i>
   <i type="int" name="KINTER">     0</i>
   <i name="CSHIFT">      0.10000000</i>
   <i name="OMEGAMAX">     -1.00000000</i>
   <i name="DEG_THRESHOLD">      0.00200000</i>
   <i name="RTIME">     -0.10000000</i>
   <i name="WPLASMAI">      0.00000000</i>
   <v name="DFIELD">      0.00000000      0.00000000      0.00000000</v>
   <v name="WPLASMA">      0.00000000      0.00000000      0.00000000      0.00000000      0.00000000      0.00000000      0.00000000      0.00000000      0.00000000</v>
  </separator>
  <separator name="orbital magnetization" >
   <i type="logical" name="NUCIND"> F  </i>
   <v name="MAGPOS">      0.00000000      0.00000000      0.00000000</v>
   <i type="logical" name="LNICSALL"> T  </i>
   <i type="logical" name="ORBITALMAG"> F  </i>
   <i type="logical" name="LMAGBLOCH"> F  </i>
   <i type="logical" name="LCHIMAG"> F  </i>
   <i type="logical" name="LGAUGE"> T  </i>
   <i type="int" name="MAGATOM">     0</i>
   <v name="MAGDIPOL">      0.00000000      0.00000000      0.00000000</v>
   <v name="AVECCONST">      0.00000000      0.00000000      0.00000000</v>
  </separator>
  <separator name="response functions" >
   <i type="logical" name="LFINITE_TEMPERATURE"> F  </i>
   <i type="logical" name="LADDER"> F  </i>
   <i type="logical" name="LRPAFORCE"> F  </i>
   <i type="logical" name="LFXC"> F  </i>
   <i type="logical" name="LHARTREE"> T  </i>
   <i type="int" name="IBSE">     0</i>
   <v type="int" name="KPOINT">    -1     0     0     0</v>
   <i type="logical" name="LTCTC"> F  </i>
   <i type="logical" name="LTCTE"> F  </i>
   <i type="logical" name="LTETE"> F  </i>
   <i type="logical" name="LTRIPLET"> F  </i>
   <i type="logical" name="LFXCEPS"> F  </i>
   <i type="logical" name="LFXHEG"> F  </i>
   <i type="int" name="NATURALO">     2</i>
   <i type="logical" name="LHOLEGF"> F  </i>
   <i type="logical" name="L2ORDER"> F  </i>
   <i type="logical" name="LDMP1"> F  </i>
   <i type="logical" name="LMP2LT"> F  </i>
   <i type="logical" name="LSMP2LT"> F  </i>
   <i type="logical" name="LGWLF"> F  </i>
   <i name="ENCUTGW">     -2.00000000</i>
   <i name="ENCUTGWSOFT">     -2.00000000</i>
   <i name="ENCUTLF">     -1.00000000</i>
   <i type="logical" name="LESF_SPLINES"> F  </i>
   <i type="int" name="LMAXMP2">    -1</i>
   <i name="SCISSOR">      0.00000000</i>
   <i type="int" name="NOMEGA">     0</i>
   <i type="int" name="NOMEGAR">     0</i>
   <i type="int" name="NBANDSGW">    -1</i>
   <i type="int" name="NBANDSO">    -1</i>
   <i type="int" name="NBANDSV">    -1</i>
   <i type="int" name="NELM">    60</i>
   <i type="int" name="NELMHF">     1</i>
   <i type="int" name="DIM">     3</i>
   <i type="int" name="IESPILON">     4</i>
   <i type="int" name="ANTIRES">     0</i>
   <i name="OMEGAMAX">    -30.00000000</i>
   <i name="OMEGAMIN">    -30.00000000</i>
   <i name="OMEGATL">   -200.00000000</i>
   <i type="int" name="OMEGAGRID">     0</i>
   <i name="CSHIFT">     -0.10000000</i>
   <i type="logical" name="LSELFENERGY"> F  </i>
   <i type="logical" name="LSPECTRAL"> F  </i>
   <i type="logical" name="LSPECTRALGW"> F  </i>
   <i type="logical" name="LSINGLES"> F  </i>
   <i type="logical" name="LFERMIGW"> F  </i>
   <i type="logical" name="ODDONLYGW"> F  </i>
   <i type="logical" name="EVENONLYGW"> F  </i>
   <i type="int" name="NKREDLFX">     1</i>
   <i type="int" name="NKREDLFY">     1</i>
   <i type="int" name="NKREDLFZ">     1</i>
   <i type="int" name="MAXMEM">  2800</i>
   <i type="int" name="TELESCOPE">     0</i>
   <i type="int" name="NTAUPAR">    -1</i>
   <i type="int" name="NOMEGAPAR">    -1</i>
   <i name="DAMP_NEWTON">      0.80000001</i>
   <i name="LAMBDA">      1.00000000</i>
  </separator>
  <separator name="External order field" >
   <i name="OFIELD_KAPPA">      0.00000000</i>
   <v name="OFIELD_K">      0.00000000      0.00000000      0.00000000</v>
   <i name="OFIELD_Q6_NEAR">      0.00000000</i>
   <i name="OFIELD_Q6_FAR">      0.00000000</i>
   <i name="OFIELD_A">      0.00000000</i>
  </separator>
 </parameters>
 <atominfo>
  <atoms>      64 </atoms>
  <types>       2 </types>
  <array name="atoms" >
   <dimension dim="1">ion</dimension>
   <field type="string">element</field>
   <field type="int">atomtype</field>
   <set>
    <rc><c>C </c><c>   1</c></rc>
    <rc><c>C </c><c>   1</c></rc>
    <rc><c>C </c><c>   1</c></rc>
    <rc><c>C </c><c>   1</c></rc>
    <rc><c>C </c><c>   1</c></rc>
    <rc><c>C </c><c>   1</c></rc>
    <rc><c>C </c><c>   1</c></rc>
    <rc><c>C </c><c>   1</c></rc>
    <rc><c>C </c><c>   1</c></rc>
    <rc><c>C </c><c>   1</c></rc>
    <rc><c>C </c><c>   1</c></rc>
    <rc><c>C </c><c>   1</c></rc>
    <rc><c>C </c><c>   1</c></rc>
    <rc><c>C </c><c>   1</c></rc>
    <rc><c>C </c><c>   1</c></rc>
    <rc><c>C </c><c>   1</c></rc>
    <rc><c>C </c><c>   1</c></rc>
    <rc><c>C </c><c>   1</c></rc>
    <rc><c>C </c><c>   1</c></rc>
    <rc><c>C </c><c>   1</c></rc>
    <rc><c>C </c><c>   1</c></rc>
    <rc><c>C </c><c>   1</c></rc>
    <rc><c>C </c><c>   1</c></rc>
    <rc><c>C </c><c>   1</c></rc>
    <rc><c>C </c><c>   1</c></rc>
    <rc><c>C </c><c>   1</c></rc>
    <rc><c>C </c><c>   1</c></rc>
    <rc><c>C </c><c>   1</c></rc>
    <rc><c>C </c><c>   1</c></rc>
    <rc><c>C </c><c>   1</c></rc>
    <rc><c>C </c><c>   1</c></rc>
    <rc><c>C </c><c>   1</c></rc>
    <rc><c>Si</c><c>   2</c></rc>
    <rc><c>Si</c><c>   2</c></rc>
    <rc><c>Si</c><c>   2</c></rc>
    <rc><c>Si</c><c>   2</c></rc>
    <rc><c>Si</c><c>   2</c></rc>
    <rc><c>Si</c><c>   2</c></rc>
    <rc><c>Si</c><c>   2</c></rc>
    <rc><c>Si</c><c>   2</c></rc>
    <rc><c>Si</c><c>   2</c></rc>
    <rc><c>Si</c><c>   2</c></rc>
    <rc><c>Si</c><c>   2</c></rc>
    <rc><c>Si</c><c>   2</c></rc>
    <rc><c>Si</c><c>   2</c></rc>
    <rc><c>Si</c><c>   2</c></rc>
    <rc><c>Si</c><c>   2</c></rc>
    <rc><c>Si</c><c>   2</c></rc>
    <rc><c>Si</c><c>   2</c></rc>
    <rc><c>Si</c><c>   2</c></rc>
    <rc><c>Si</c><c>   2</c></rc>
    <rc><c>Si</c><c>   2</c></rc>
    <rc><c>Si</c><c>   2</c></rc>
    <rc><c>Si</c><c>   2</c></rc>
    <rc><c>Si</c><c>   2</c></rc>
    <rc><c>Si</c><c>   2</c></rc>
    <rc><c>Si</c><c>   2</c></rc>
    <rc><c>Si</c><c>   2</c></rc>
    <rc><c>Si</c><c>   2</c></rc>
    <rc><c>Si</c><c>   2</c></rc>
    <rc><c>Si</c><c>   2</c></rc>
    <rc><c>Si</c><c>   2</c></rc>
    <rc><c>Si</c><c>   2</c></rc>
    <rc><c>Si</c><c>   2</c></rc>
   </set>
  </array>
  <array name="atomtypes" >
   <dimension dim="1">type</dimension>
   <field type="int">atomspertype</field>
   <field type="string">element</field>
   <field>mass</field>
   <field>valence</field>
   <field type="string">pseudopotential</field>
   <set>
    <rc><c>  32</c><c>C </c><c>     12.01100000</c><c>      4.00000000</c><c>  PAW_PBE C 08Apr2002                   </c></rc>
    <rc><c>  32</c><c>Si</c><c>     28.08500000</c><c>      4.00000000</c><c>  PAW_PBE Si 05Jan2001                  </c></rc>
   </set>
  </array>
 </atominfo>
 <structure name="initialpos" >
  <crystal>
   <varray name="basis" >
    <v>       8.74331558       0.00000000       0.00000000 </v>
    <v>       0.00000000       8.74331558       0.00000000 </v>
    <v>       0.00000000       0.00000000       8.74331558 </v>
   </varray>
   <i name="volume">    668.38771987 </i>
   <varray name="rec_basis" >
    <v>       0.11437309       0.00000000       0.00000000 </v>
    <v>       0.00000000       0.11437309       0.00000000 </v>
    <v>       0.00000000       0.00000000       0.11437309 </v>
   </varray>
  </crystal>
  <varray name="positions" >
   <v>       0.13020617       0.12507343       0.12236912 </v>
   <v>       0.12743351       0.38028258       0.38045705 </v>
   <v>       0.37175438       0.12611413       0.36852718 </v>
   <v>       0.37992438       0.37815544       0.12086660 </v>
   <v>       0.12520821       0.12221081       0.62580316 </v>
   <v>       0.12028047       0.37441060       0.88169563 </v>
   <v>       0.38165276       0.12634978       0.87533739 </v>
   <v>       0.37690690       0.37665310       0.62406790 </v>
   <v>       0.12003872       0.62860515       0.12925704 </v>
   <v>       0.12299534       0.87993194       0.37692792 </v>
   <v>       0.36985452       0.63173362       0.37784393 </v>
   <v>       0.37581839       0.87559481       0.11445204 </v>
   <v>       0.12920570       0.62356159       0.61498586 </v>
   <v>       0.12828579       0.86895471       0.87740356 </v>
   <v>       0.37061579       0.62660110       0.87536798 </v>
   <v>       0.37885136       0.87374854       0.62296146 </v>
   <v>       0.62276151       0.12583067       0.12705659 </v>
   <v>       0.61717892       0.37567732       0.37317114 </v>
   <v>       0.87032818       0.11399140       0.38298845 </v>
   <v>       0.88307306       0.37051556       0.12131536 </v>
   <v>       0.62990382       0.12777328       0.62589789 </v>
   <v>       0.62026798       0.37770020       0.87528823 </v>
   <v>       0.88594484       0.12707765       0.88233388 </v>
   <v>       0.87359518       0.37462987       0.62528846 </v>
   <v>       0.62648335       0.63172690       0.12633562 </v>
   <v>       0.63313146       0.88109084       0.37184714 </v>
   <v>       0.87730421       0.62545316       0.37816009 </v>
   <v>       0.87278430       0.87411209       0.12119056 </v>
   <v>       0.63369502       0.62246568       0.62111336 </v>
   <v>       0.63336923       0.87141617       0.87747686 </v>
   <v>       0.87746695       0.62691793       0.87870907 </v>
   <v>       0.87475720       0.88022146       0.61651607 </v>
   <v>       0.99489383       0.00666252       0.99533455 </v>
   <v>       0.99941259       0.24364793       0.25661386 </v>
   <v>       0.24751311       0.99948429       0.24910980 </v>
   <v>       0.25426775       0.25155074       0.99783974 </v>
   <v>       0.99598229       0.00381254       0.49540609 </v>
   <v>       0.99707674       0.24733610       0.74616224 </v>
   <v>       0.25568520       0.00020173       0.75658997 </v>
   <v>       0.24659763       0.25127554       0.50468008 </v>
   <v>       0.99332170       0.49452425       0.00203728 </v>
   <v>       0.99435492       0.74974312       0.25146976 </v>
   <v>       0.24797225       0.50561521       0.24821461 </v>
   <v>       0.24750245       0.75169149       0.99670488 </v>
   <v>       0.99573927       0.50272993       0.50011773 </v>
   <v>       0.99122976       0.74900620       0.75078174 </v>
   <v>       0.25096232       0.50543269       0.75103674 </v>
   <v>       0.24538934       0.74807427       0.49740771 </v>
   <v>       0.49307260       0.00013538       0.00253158 </v>
   <v>       0.50399390       0.25426084       0.25036926 </v>
   <v>       0.74005363       0.00020733       0.24229273 </v>
   <v>       0.74564997       0.23958823       0.99851815 </v>
   <v>       0.49708178       0.99927562       0.49878691 </v>
   <v>       0.49578130       0.24313141       0.74536217 </v>
   <v>       0.75222667       0.00562497       0.73866273 </v>
   <v>       0.75086764       0.24682048       0.49838703 </v>
   <v>       0.49875003       0.50011023       0.99719793 </v>
   <v>       0.50163643       0.74549402       0.24843505 </v>
   <v>       0.75027259       0.50619483       0.24898933 </v>
   <v>       0.75692498       0.75084147       0.00096755 </v>
   <v>       0.50527041       0.50169545       0.49907559 </v>
   <v>       0.50581884       0.74577479       0.74699116 </v>
   <v>       0.75855386       0.51225748       0.75140604 </v>
   <v>       0.74662286       0.74936013       0.50258694 </v>
  </varray>
 </structure>
 <calculation>
  <scstep>
   <time name="dav">   14.85   14.92</time>
   <time name="total">   14.99   15.07</time>
   <energy>
    <i name="alphaZ">    354.85177120 </i>
    <i name="ewald">  -9070.90210427 </i>
    <i name="hartreedc">   -676.92199959 </i>
    <i name="XCdc">    145.94069616 </i>
    <i name="pawpsdc">   6292.66707184 </i>
    <i name="pawaedc">  -5747.90303932 </i>
    <i name="eentropy">     -0.00718981 </i>
    <i name="bandstr">   1368.35423692 </i>
    <i name="atom">   8006.17504320 </i>
    <i name="e_fr_energy">    672.25448633 </i>
    <i name="e_wo_entrp">    672.26167614 </i>
    <i name="e_0_energy">    672.25688293 </i>
   </energy>
  </scstep>
  <scstep>
   <time name="dav">   20.61   20.68</time>
   <time name="total">   20.61   20.69</time>
   <energy>
    <i name="e_fr_energy">   -460.15552668 </i>
    <i name="e_wo_entrp">   -460.17070051 </i>
    <i name="e_0_energy">   -460.16058462 </i>
   </energy>
  </scstep>
  <scstep>
   <time name="dav">   16.20   16.26</time>
   <time name="total">   16.21   16.26</time>
   <energy>
    <i name="e_fr_energy">   -535.74610376 </i>
    <i name="e_wo_entrp">   -535.76682292 </i>
    <i name="e_0_energy">   -535.75301015 </i>
   </energy>
  </scstep>
  <scstep>
   <time name="dav">   15.53   15.58</time>
   <time name="total">   15.54   15.59</time>
   <energy>
    <i name="e_fr_energy">   -537.43463800 </i>
    <i name="e_wo_entrp">   -537.45630408 </i>
    <i name="e_0_energy">   -537.44186003 </i>
   </energy>
  </scstep>
  <scstep>
   <time name="dav">   15.57   15.62</time>
   <time name="total">   15.82   15.87</time>
   <energy>
    <i name="e_fr_energy">   -537.48221574 </i>
    <i name="e_wo_entrp">   -537.50384554 </i>
    <i name="e_0_energy">   -537.48942567 </i>
   </energy>
  </scstep>
  <scstep>
   <time name="dav">   14.81   14.84</time>
   <time name="total">   15.45   15.52</time>
   <energy>
    <i name="e_fr_energy">   -479.98087363 </i>
    <i name="e_wo_entrp">   -479.99262362 </i>
    <i name="e_0_energy">   -479.98479029 </i>
   </energy>
  </scstep>
  <scstep>
   <time name="dav">   15.70   15.75</time>
   <time name="total">   16.02   16.09</time>
   <energy>
    <i name="e_fr_energy">   -478.66824307 </i>
    <i name="e_wo_entrp">   -478.67882425 </i>
    <i name="e_0_energy">   -478.67177013 </i>
   </energy>
  </scstep>
  <scstep>
   <time name="dav">   14.72   14.77</time>
   <time name="total">   15.08   15.13</time>
   <energy>
    <i name="e_fr_energy">   -478.43400869 </i>
    <i name="e_wo_entrp">   -478.44496012 </i>
    <i name="e_0_energy">   -478.43765917 </i>
   </energy>
  </scstep>
  <scstep>
   <time name="dav">   14.83   14.88</time>
   <time name="total">   15.16   15.21</time>
   <energy>
    <i name="e_fr_energy">   -478.41692701 </i>
    <i name="e_wo_entrp">   -478.42778136 </i>
    <i name="e_0_energy">   -478.42054513 </i>
   </energy>
  </scstep>
  <scstep>
   <time name="dav">   16.44   16.47</time>
   <time name="total">   17.26   17.33</time>
   <energy>
    <i name="e_fr_energy">   -478.41945466 </i>
    <i name="e_wo_entrp">   -478.43029124 </i>
    <i name="e_0_energy">   -478.42306685 </i>
   </energy>
  </scstep>
  <scstep>
   <time name="dav">   15.93   15.96</time>
   <time name="total">   16.28   16.32</time>
   <energy>
    <i name="e_fr_energy">   -478.42072648 </i>
    <i name="e_wo_entrp">   -478.43156129 </i>
    <i name="e_0_energy">   -478.42433809 </i>
   </energy>
  </scstep>
  <scstep>
   <time name="dav">   16.25   16.27</time>
   <time name="total">   16.58   16.61</time>
   <energy>
    <i name="e_fr_energy">   -478.42081945 </i>
    <i name="e_wo_entrp">   -478.43165291 </i>
    <i name="e_0_energy">   -478.42443060 </i>
   </energy>
  </scstep>
  <scstep>
   <time name="dav">   14.18   14.30</time>
   <time name="total">   14.51   14.63</time>
   <energy>
    <i name="e_fr_energy">   -478.42084047 </i>
    <i name="e_wo_entrp">   -478.43167640 </i>
    <i name="e_0_energy">   -478.42445245 </i>
   </energy>
  </scstep>
  <scstep>
   <time name="dav">   17.60   17.66</time>
   <time name="total">   18.27   18.38</time>
   <energy>
    <i name="e_fr_energy">   -478.42084457 </i>
    <i name="e_wo_entrp">   -478.43168055 </i>
    <i name="e_0_energy">   -478.42445657 </i>
   </energy>
  </scstep>
  <scstep>
   <time name="dav">   15.86   15.89</time>
   <time name="total">   16.49   16.53</time>
   <energy>
    <i name="e_fr_energy">   -478.42084628 </i>
    <i name="e_wo_entrp">   -478.43168212 </i>
    <i name="e_0_energy">   -478.42445823 </i>
   </energy>
  </scstep>
  <scstep>
   <time name="dav">   15.84   15.87</time>
   <time name="total">   16.17   16.20</time>
   <energy>
    <i name="e_fr_energy">   -478.42084624 </i>
    <i name="e_wo_entrp">   -478.43168217 </i>
    <i name="e_0_energy">   -478.42445821 </i>
   </energy>
  </scstep>
  <scstep>
   <time name="dav">   14.70   14.73</time>
   <time name="total">   15.03   15.06</time>
   <energy>
    <i name="e_fr_energy">   -478.42084659 </i>
    <i name="e_wo_entrp">   -478.43168250 </i>
    <i name="e_0_energy">   -478.42445856 </i>
   </energy>
  </scstep>
  <scstep>
   <time name="dav">    9.79    9.80</time>
   <time name="total">   10.18   10.25</time>
   <energy>
    <i name="alphaZ">    354.85177120 </i>
    <i name="ewald">  -9070.90210427 </i>
    <i name="hartreedc">  -1030.88734958 </i>
    <i name="XCdc">    179.40980428 </i>
    <i name="pawpsdc">  33306.64748824 </i>
    <i name="pawaedc"> -32767.67088727 </i>
    <i name="eentropy">      0.01083588 </i>
    <i name="bandstr">    543.94455173 </i>
    <i name="atom">   8006.17504320 </i>
    <i name="e_fr_energy">   -478.42084659 </i>
    <i name="e_wo_entrp">   -478.43168247 </i>
    <i name="e_0_energy">   -478.42445855 </i>
   </energy>
  </scstep>
  <structure>
   <crystal>
    <varray name="basis" >
     <v>       8.74331558       0.00000000       0.00000000 </v>
     <v>       0.00000000       8.74331558       0.00000000 </v>
     <v>       0.00000000       0.00000000       8.74331558 </v>
    </varray>
    <i name="volume">    668.38771987 </i>
    <varray name="rec_basis" >
     <v>       0.11437309       0.00000000       0.00000000 </v>
     <v>       0.00000000       0.11437309       0.00000000 </v>
     <v>       0.00000000       0.00000000       0.11437309 </v>
    </varray>
   </crystal>
   <varray name="positions" >
    <v>       0.13020617       0.12507343       0.12236912 </v>
    <v>       0.12743351       0.38028258       0.38045705 </v>
    <v>       0.37175438       0.12611413       0.36852718 </v>
    <v>       0.37992438       0.37815544       0.12086660 </v>
    <v>       0.12520821       0.12221081       0.62580316 </v>
    <v>       0.12028047       0.37441060       0.88169563 </v>
    <v>       0.38165276       0.12634978       0.87533739 </v>
    <v>       0.37690690       0.37665310       0.62406790 </v>
    <v>       0.12003872       0.62860515       0.12925704 </v>
    <v>       0.12299534       0.87993194       0.37692792 </v>
    <v>       0.36985452       0.63173362       0.37784393 </v>
    <v>       0.37581839       0.87559481       0.11445204 </v>
    <v>       0.12920570       0.62356159       0.61498586 </v>
    <v>       0.12828579       0.86895471       0.87740356 </v>
    <v>       0.37061579       0.62660110       0.87536798 </v>
    <v>       0.37885136       0.87374854       0.62296146 </v>
    <v>       0.62276151       0.12583067       0.12705659 </v>
    <v>       0.61717892       0.37567732       0.37317114 </v>
    <v>       0.87032818       0.11399140       0.38298845 </v>
    <v>       0.88307306       0.37051556       0.12131536 </v>
    <v>       0.62990382       0.12777328       0.62589789 </v>
    <v>       0.62026798       0.37770020       0.87528823 </v>
    <v>       0.88594484       0.12707765       0.88233388 </v>
    <v>       0.87359518       0.37462987       0.62528846 </v>
    <v>       0.62648335       0.63172690       0.12633562 </v>
    <v>       0.63313146       0.88109084       0.37184714 </v>
    <v>       0.87730421       0.62545316       0.37816009 </v>
    <v>       0.87278430       0.87411209       0.12119056 </v>
    <v>       0.63369502       0.62246568       0.62111336 </v>
    <v>       0.63336923       0.87141617       0.87747686 </v>
    <v>       0.87746695       0.62691793       0.87870907 </v>
    <v>       0.87475720       0.88022146       0.61651607 </v>
    <v>       0.99489383       0.00666252       0.99533455 </v>
    <v>       0.99941259       0.24364793       0.25661386 </v>
    <v>       0.24751311       0.99948429       0.24910980 </v>
    <v>       0.25426775       0.25155074       0.99783974 </v>
    <v>       0.99598229       0.00381254       0.49540609 </v>
    <v>       0.99707674       0.24733610       0.74616224 </v>
    <v>       0.25568520       0.00020173       0.75658997 </v>
    <v>       0.24659763       0.25127554       0.50468008 </v>
    <v>       0.99332170       0.49452425       0.00203728 </v>
    <v>       0.99435492       0.74974312       0.25146976 </v>
    <v>       0.24797225       0.50561521       0.24821461 </v>
    <v>       0.24750245       0.75169149       0.99670488 </v>
    <v>       0.99573927       0.50272993       0.50011773 </v>
    <v>       0.99122976       0.74900620       0.75078174 </v>
    <v>       0.25096232       0.50543269       0.75103674 </v>
    <v>       0.24538934       0.74807427       0.49740771 </v>
    <v>       0.49307260       0.00013538       0.00253158 </v>
    <v>       0.50399390       0.25426084       0.25036926 </v>
    <v>       0.74005363       0.00020733       0.24229273 </v>
    <v>       0.74564997       0.23958823       0.99851815 </v>
    <v>       0.49708178       0.99927562       0.49878691 </v>
    <v>       0.49578130       0.24313141       0.74536217 </v>
    <v>       0.75222667       0.00562497       0.73866273 </v>
    <v>       0.75086764       0.24682048       0.49838703 </v>
    <v>       0.49875003       0.50011023       0.99719793 </v>
    <v>       0.50163643       0.74549402       0.24843505 </v>
    <v>       0.75027259       0.50619483       0.24898933 </v>
    <v>       0.75692498       0.75084147       0.00096755 </v>
    <v>       0.50527041       0.50169545       0.49907559 </v>
    <v>       0.50581884       0.74577479       0.74699116 </v>
    <v>       0.75855386       0.51225748       0.75140604 </v>
    <v>       0.74662286       0.74936013       0.50258694 </v>
   </varray>
  </structure>
  <varray name="forces" >
   <v>      -0.90983975      -0.07585133       0.34000847 </v>
   <v>      -0.80526979      -0.90948672      -0.76621678 </v>
   <v>       0.56723785       0.20744094       1.16138071 </v>
   <v>      -0.83955717      -0.07880025       0.90030462 </v>
   <v>      -0.08716205       0.11691733       0.29409646 </v>
   <v>       0.88706506       0.22406827      -1.81522959 </v>
   <v>      -1.16082175      -0.27160535       0.01242931 </v>
   <v>      -0.14449899      -0.15292344       0.30883643 </v>
   <v>       0.21192272      -0.39864854      -0.98743453 </v>
   <v>      -0.15919807      -0.70622992      -0.63813880 </v>
   <v>       1.55154192      -1.08244775      -0.86920466 </v>
   <v>      -0.74812629      -0.79465234       2.25978516 </v>
   <v>      -1.64987363       0.13067578       2.17786919 </v>
   <v>      -1.57094994       1.64444621      -1.17057867 </v>
   <v>       1.15775912       0.06407278      -0.32428565 </v>
   <v>      -0.41095370      -0.17220089       0.47422088 </v>
   <v>      -0.54720758      -0.04124223      -0.64104824 </v>
   <v>       2.33291641       0.31657898       0.27541873 </v>
   <v>      -0.58651048       2.29494196      -2.64594383 </v>
   <v>      -2.64004212      -0.56614061       1.67595930 </v>
   <v>      -1.46842795      -0.12264091      -0.79531772 </v>
   <v>       1.24605274      -0.62805490      -0.73258701 </v>
   <v>      -3.12304231       0.53888069      -2.94447734 </v>
   <v>       0.02809207       0.33289636      -0.11035374 </v>
   <v>       0.27445900      -1.32921475      -0.84660165 </v>
   <v>      -2.23732472      -1.63546872       0.73307904 </v>
   <v>      -1.27589126       0.26175699      -0.27747920 </v>
   <v>       0.50332348       1.08403925       0.74807197 </v>
   <v>      -1.17976379       0.34441510       0.65302876 </v>
   <v>      -0.95673449       1.05406741      -1.09589012 </v>
   <v>      -0.05718595      -0.30727825      -0.07341488 </v>
   <v>      -0.12868398      -1.09385709       1.36223806 </v>
   <v>       2.65797770      -2.50853209       1.95770062 </v>
   <v>       0.73287022       0.84851106      -0.62034512 </v>
   <v>       0.43705184      -0.25394858      -0.56327624 </v>
   <v>      -0.58667560       0.34393436       0.52114937 </v>
   <v>       1.84116401      -1.40228414       1.27094904 </v>
   <v>       1.09517070       0.87309762       0.95533461 </v>
   <v>      -0.83783838      -0.87220777      -1.09852541 </v>
   <v>       0.66258359       0.16236786      -0.93638327 </v>
   <v>       1.94137964       0.99180116      -0.00197572 </v>
   <v>       0.84070643       0.97286194      -0.00854820 </v>
   <v>       0.21616919      -0.83063928       0.27801309 </v>
   <v>       0.10557994      -0.79477750       1.11970128 </v>
   <v>       1.13128089      -0.88831443       0.03975779 </v>
   <v>       2.33055412       0.92500715      -0.98577805 </v>
   <v>      -0.73794072      -1.24214755      -0.26643205 </v>
   <v>       0.47539164       1.74218426       0.32208247 </v>
   <v>       2.22756974      -0.29282003      -0.94418681 </v>
   <v>      -1.73490087      -0.51790122      -0.53863013 </v>
   <v>       2.17461053      -0.48879289       0.81098043 </v>
   <v>       0.68861747       2.37312887      -0.09799655 </v>
   <v>       0.62179826       0.38609783      -0.66750522 </v>
   <v>       1.32331028       2.17057246       0.35719685 </v>
   <v>       0.41740229      -1.32665529       2.53269258 </v>
   <v>      -0.56749043       1.14881692       0.08191683 </v>
   <v>       0.37126223       0.65743747       0.24343714 </v>
   <v>      -0.59929155       1.88714599       0.31793699 </v>
   <v>       0.27268206      -1.37303238      -0.13211759 </v>
   <v>      -1.34890391       0.18135216      -0.05404400 </v>
   <v>      -1.46416358      -0.15677402       0.15585241 </v>
   <v>      -0.47148443       0.82067537       0.73190364 </v>
   <v>      -1.46081313      -2.96947242       0.10238301 </v>
   <v>       1.17106519       1.18485306      -1.52576846 </v>
  </varray>
  <varray name="stress" >
   <v>      12.01624201      -4.18798428      -1.57388708 </v>
   <v>      -4.18798425      14.28185108     -15.85116134 </v>
   <v>      -1.57388698     -15.85116142      14.65288880 </v>
  </varray>
  <energy>
   <i name="e_fr_energy">   -478.42084659 </i>
   <i name="e_wo_entrp">   -478.43168247 </i>
   <i name="e_0_energy">   -478.42445855 </i>
  </energy>
  <time name="totalsc">  297.30  298.40</time>
  <eigenvalues>
   <array>
    <dimension dim="1">band</dimension>
    <dimension dim="2">kpoint</dimension>
    <dimension dim="3">spin</dimension>
    <field>eigene</field>
    <field>occ</field>
    <set>
     <set comment="spin 1">
      <set comment="kpoint 1">
       <r>   -7.3794    1.0000 </r>
       <r>   -6.0064    1.0000 </r>
       <r>   -5.8902    1.0000 </r>
       <r>   -5.8297    1.0000 </r>
       <r>   -5.7682    1.0000 </r>
       <r>   -5.7006    1.0000 </r>
       <r>   -5.6114    1.0000 </r>
       <r>   -4.6347    1.0000 </r>
       <r>   -4.6188    1.0000 </r>
       <r>   -4.5838    1.0000 </r>
       <r>   -4.5167    1.0000 </r>
       <r>   -4.4926    1.0000 </r>
       <r>   -4.3766    1.0000 </r>
       <r>   -4.3606    1.0000 </r>
       <r>   -4.3001    1.0000 </r>
       <r>   -4.2822    1.0000 </r>
       <r>   -4.1707    1.0000 </r>
       <r>   -4.1060    1.0000 </r>
       <r>   -3.9933    1.0000 </r>
       <r>   -3.9507    1.0000 </r>
       <r>   -3.8182    1.0000 </r>
       <r>   -3.7230    1.0000 </r>
       <r>   -3.5391    1.0000 </r>
       <r>   -2.5852    1.0000 </r>
       <r>   -2.4519    1.0000 </r>
       <r>   -2.2979    1.0000 </r>
       <r>   -2.2390    1.0000 </r>
       <r>   -2.1973    1.0000 </r>
       <r>   -2.1321    1.0000 </r>
       <r>   -2.0698    1.0000 </r>
       <r>   -1.9882    1.0000 </r>
       <r>   -1.9360    1.0000 </r>
       <r>   -0.7021    1.0000 </r>
       <r>   -0.5715    1.0000 </r>
       <r>   -0.4181    1.0000 </r>
       <r>   -0.3263    1.0000 </r>
       <r>    0.1781    1.0000 </r>
       <r>    0.2156    1.0000 </r>
       <r>    0.2575    1.0000 </r>
       <r>    0.8593    1.0000 </r>
       <r>    0.9076    1.0000 </r>
       <r>    0.9267    1.0000 </r>
       <r>    0.9909    1.0000 </r>
       <r>    1.0083    1.0000 </r>
       <r>    1.0937    1.0000 </r>
       <r>    1.8054    1.0000 </r>
       <r>    1.8877    1.0000 </r>
       <r>    1.9201    1.0000 </r>
       <r>    1.9348    1.0000 </r>
       <r>    1.9965    1.0000 </r>
       <r>    2.0340    1.0000 </r>
       <r>    2.0784    1.0000 </r>
       <r>    2.0971    1.0000 </r>
       <r>    2.1481    1.0000 </r>
       <r>    2.2001    1.0000 </r>
       <r>    2.2668    1.0000 </r>
       <r>    2.2749    1.0000 </r>
       <r>    2.9267    1.0000 </r>
       <r>    2.9852    1.0000 </r>
       <r>    2.9963    1.0000 </r>
       <r>    3.0190    1.0000 </r>
       <r>    3.0647    1.0000 </r>
       <r>    3.1104    1.0000 </r>
       <r>    3.2023    1.0000 </r>
       <r>    3.2741    1.0000 </r>
       <r>    3.3131    1.0000 </r>
       <r>    3.3253    1.0000 </r>
       <r>    3.3571    1.0000 </r>
       <r>    3.3664    1.0000 </r>
       <r>    3.4926    1.0000 </r>
       <r>    3.5142    1.0000 </r>
       <r>    3.5495    1.0000 </r>
       <r>    3.5991    1.0000 </r>
       <r>    3.6078    1.0000 </r>
       <r>    3.7306    1.0000 </r>
       <r>    3.7466    1.0000 </r>
       <r>    3.7764    1.0000 </r>
       <r>    3.7946    1.0000 </r>
       <r>    3.8268    1.0000 </r>
       <r>    3.9320    1.0000 </r>
       <r>    3.9342    1.0000 </r>
       <r>    4.4935    1.0000 </r>
       <r>    4.5374    1.0000 </r>
       <r>    4.6156    1.0000 </r>
       <r>    4.6675    1.0000 </r>
       <r>    4.6721    1.0000 </r>
       <r>    4.7198    1.0000 </r>
       <r>    4.8080    1.0000 </r>
       <r>    4.8182    1.0000 </r>
       <r>    4.8557    1.0000 </r>
       <r>    4.9017    1.0000 </r>
       <r>    4.9377    1.0000 </r>
       <r>    4.9688    1.0000 </r>
       <r>    5.8058    1.0000 </r>
       <r>    5.8464    1.0000 </r>
       <r>    5.9134    1.0000 </r>
       <r>    5.9647    1.0000 </r>
       <r>    6.0216    1.0000 </r>
       <r>    6.0557    1.0000 </r>
       <r>    6.1071    1.0000 </r>
       <r>    6.1296    1.0000 </r>
       <r>    6.1372    1.0000 </r>
       <r>    6.2229    1.0000 </r>
       <r>    6.2932    1.0000 </r>
       <r>    6.3084    1.0000 </r>
       <r>    6.4681    1.0000 </r>
       <r>    6.6100    1.0000 </r>
       <r>    6.6240    1.0000 </r>
       <r>    6.6352    1.0000 </r>
       <r>    6.6928    1.0000 </r>
       <r>    6.7649    1.0000 </r>
       <r>    6.7765    1.0000 </r>
       <r>    6.8432    1.0000 </r>
       <r>    6.8792    1.0000 </r>
       <r>    6.9024    1.0000 </r>
       <r>    6.9082    1.0000 </r>
       <r>    6.9795    1.0000 </r>
       <r>    6.9887    1.0000 </r>
       <r>    7.0170    1.0000 </r>
       <r>    7.0374    1.0000 </r>
       <r>    7.0747    1.0000 </r>
       <r>    7.1379    1.0000 </r>
       <r>    7.1955    1.0000 </r>
       <r>    7.2495    1.0000 </r>
       <r>    7.3012    1.0000 </r>
       <r>    7.9429    1.0293 </r>
       <r>    8.0522    1.0141 </r>
       <r>    8.1727    0.7518 </r>
       <r>    9.1135   -0.0000 </r>
       <r>    9.3449   -0.0000 </r>
       <r>    9.5864   -0.0000 </r>
       <r>   11.7804   -0.0000 </r>
       <r>   11.8950   -0.0000 </r>
       <r>   11.9279   -0.0000 </r>
       <r>   11.9697   -0.0000 </r>
       <r>   11.9936   -0.0000 </r>
       <r>   12.1088   -0.0000 </r>
       <r>   12.1557   -0.0000 </r>
       <r>   12.2352   -0.0000 </r>
       <r>   12.3492   -0.0000 </r>
       <r>   12.8534   -0.0000 </r>
       <r>   12.9647   -0.0000 </r>
       <r>   12.9996   -0.0000 </r>
       <r>   13.0640   -0.0000 </r>
       <r>   13.1179   -0.0000 </r>
       <r>   13.1860   -0.0000 </r>
       <r>   13.2071   -0.0000 </r>
       <r>   13.2079   -0.0000 </r>
       <r>   13.2651   -0.0000 </r>
       <r>   13.2812   -0.0000 </r>
       <r>   13.3424   -0.0000 </r>
       <r>   13.3491   -0.0000 </r>
       <r>   13.3745   -0.0000 </r>
       <r>   13.4073   -0.0000 </r>
       <r>   13.4433   -0.0000 </r>
       <r>   13.4869   -0.0000 </r>
       <r>   13.5131   -0.0000 </r>
       <r>   13.5901   -0.0000 </r>
       <r>   13.6248   -0.0000 </r>
       <r>   13.6301   -0.0000 </r>
       <r>   13.6985    0.0000 </r>
       <r>   13.7468    0.0000 </r>
       <r>   14.0405    0.0000 </r>
       <r>   14.0958    0.0000 </r>
       <r>   14.1782    0.0000 </r>
       <r>   14.2640    0.0000 </r>
       <r>   14.3166    0.0000 </r>
       <r>   14.3720    0.0000 </r>
      </set>
      <set comment="kpoint 2">
       <r>   -7.2109    1.0000 </r>
       <r>   -6.6471    1.0000 </r>
       <r>   -5.8427    1.0000 </r>
       <r>   -5.7209    1.0000 </r>
       <r>   -5.6102    1.0000 </r>
       <r>   -5.4629    1.0000 </r>
       <r>   -5.2772    1.0000 </r>
       <r>   -5.1516    1.0000 </r>
       <r>   -5.0596    1.0000 </r>
       <r>   -4.9778    1.0000 </r>
       <r>   -4.6405    1.0000 </r>
       <r>   -4.5212    1.0000 </r>
       <r>   -4.4490    1.0000 </r>
       <r>   -4.1980    1.0000 </r>
       <r>   -4.1508    1.0000 </r>
       <r>   -4.0129    1.0000 </r>
       <r>   -3.9475    1.0000 </r>
       <r>   -3.8953    1.0000 </r>
       <r>   -3.7494    1.0000 </r>
       <r>   -3.5673    1.0000 </r>
       <r>   -3.4296    1.0000 </r>
       <r>   -3.3608    1.0000 </r>
       <r>   -3.2601    1.0000 </r>
       <r>   -3.1965    1.0000 </r>
       <r>   -2.6512    1.0000 </r>
       <r>   -2.5542    1.0000 </r>
       <r>   -2.5215    1.0000 </r>
       <r>   -2.4447    1.0000 </r>
       <r>   -2.3172    1.0000 </r>
       <r>   -2.2562    1.0000 </r>
       <r>   -2.1741    1.0000 </r>
       <r>   -2.0411    1.0000 </r>
       <r>   -0.2475    1.0000 </r>
       <r>   -0.1276    1.0000 </r>
       <r>    0.0017    1.0000 </r>
       <r>    0.1309    1.0000 </r>
       <r>    0.3418    1.0000 </r>
       <r>    0.3678    1.0000 </r>
       <r>    0.6787    1.0000 </r>
       <r>    0.7284    1.0000 </r>
       <r>    0.8526    1.0000 </r>
       <r>    0.9576    1.0000 </r>
       <r>    0.9750    1.0000 </r>
       <r>    1.0165    1.0000 </r>
       <r>    1.0590    1.0000 </r>
       <r>    1.1281    1.0000 </r>
       <r>    1.1697    1.0000 </r>
       <r>    1.2244    1.0000 </r>
       <r>    1.2968    1.0000 </r>
       <r>    1.3278    1.0000 </r>
       <r>    1.3780    1.0000 </r>
       <r>    1.4359    1.0000 </r>
       <r>    1.5454    1.0000 </r>
       <r>    2.5639    1.0000 </r>
       <r>    2.6198    1.0000 </r>
       <r>    2.6398    1.0000 </r>
       <r>    2.7383    1.0000 </r>
       <r>    2.8167    1.0000 </r>
       <r>    2.8613    1.0000 </r>
       <r>    2.8816    1.0000 </r>
       <r>    2.9354    1.0000 </r>
       <r>    2.9884    1.0000 </r>
       <r>    3.0372    1.0000 </r>
       <r>    3.0778    1.0000 </r>
       <r>    3.1055    1.0000 </r>
       <r>    3.1937    1.0000 </r>
       <r>    3.4901    1.0000 </r>
       <r>    3.5325    1.0000 </r>
       <r>    3.6104    1.0000 </r>
       <r>    3.6779    1.0000 </r>
       <r>    3.9263    1.0000 </r>
       <r>    3.9595    1.0000 </r>
       <r>    4.0440    1.0000 </r>
       <r>    4.0755    1.0000 </r>
       <r>    4.3028    1.0000 </r>
       <r>    4.3218    1.0000 </r>
       <r>    4.3282    1.0000 </r>
       <r>    4.3620    1.0000 </r>
       <r>    4.3944    1.0000 </r>
       <r>    4.4283    1.0000 </r>
       <r>    4.4692    1.0000 </r>
       <r>    4.4845    1.0000 </r>
       <r>    4.5251    1.0000 </r>
       <r>    4.6021    1.0000 </r>
       <r>    4.6377    1.0000 </r>
       <r>    4.6964    1.0000 </r>
       <r>    4.7523    1.0000 </r>
       <r>    4.8001    1.0000 </r>
       <r>    4.8649    1.0000 </r>
       <r>    4.9769    1.0000 </r>
       <r>    5.0299    1.0000 </r>
       <r>    5.0757    1.0000 </r>
       <r>    5.3666    1.0000 </r>
       <r>    5.4413    1.0000 </r>
       <r>    5.4893    1.0000 </r>
       <r>    5.5734    1.0000 </r>
       <r>    5.6463    1.0000 </r>
       <r>    5.7456    1.0000 </r>
       <r>    5.8108    1.0000 </r>
       <r>    5.8369    1.0000 </r>
       <r>    5.8867    1.0000 </r>
       <r>    6.0142    1.0000 </r>
       <r>    6.1060    1.0000 </r>
       <r>    6.1307    1.0000 </r>
       <r>    6.2214    1.0000 </r>
       <r>    6.3432    1.0000 </r>
       <r>    6.3753    1.0000 </r>
       <r>    6.4410    1.0000 </r>
       <r>    6.4891    1.0000 </r>
       <r>    6.5328    1.0000 </r>
       <r>    6.5791    1.0000 </r>
       <r>    6.6360    1.0000 </r>
       <r>    6.7040    1.0000 </r>
       <r>    6.7852    1.0000 </r>
       <r>    6.8321    1.0000 </r>
       <r>    6.8692    1.0000 </r>
       <r>    6.9024    1.0000 </r>
       <r>    6.9247    1.0000 </r>
       <r>    6.9629    1.0000 </r>
       <r>    7.0005    1.0000 </r>
       <r>    7.0085    1.0000 </r>
       <r>    7.0533    1.0000 </r>
       <r>    7.1102    1.0000 </r>
       <r>    7.1433    1.0000 </r>
       <r>    7.2662    1.0000 </r>
       <r>    7.5353    1.0000 </r>
       <r>    7.6315    1.0001 </r>
       <r>    7.8382    1.0083 </r>
       <r>    9.5871   -0.0000 </r>
       <r>   10.1282   -0.0000 </r>
       <r>   10.2954   -0.0000 </r>
       <r>   10.5923   -0.0000 </r>
       <r>   11.8571   -0.0000 </r>
       <r>   12.0003   -0.0000 </r>
       <r>   12.3523   -0.0000 </r>
       <r>   12.4426   -0.0000 </r>
       <r>   12.4816   -0.0000 </r>
       <r>   12.5591   -0.0000 </r>
       <r>   12.6838   -0.0000 </r>
       <r>   12.7549   -0.0000 </r>
       <r>   12.8151   -0.0000 </r>
       <r>   12.8893   -0.0000 </r>
       <r>   12.9449   -0.0000 </r>
       <r>   12.9834   -0.0000 </r>
       <r>   13.0348   -0.0000 </r>
       <r>   13.0774   -0.0000 </r>
       <r>   13.1065   -0.0000 </r>
       <r>   13.1399   -0.0000 </r>
       <r>   13.1792   -0.0000 </r>
       <r>   13.2495   -0.0000 </r>
       <r>   13.3777   -0.0000 </r>
       <r>   13.4844   -0.0000 </r>
       <r>   13.5517   -0.0000 </r>
       <r>   13.5573   -0.0000 </r>
       <r>   13.6145   -0.0000 </r>
       <r>   13.6527   -0.0000 </r>
       <r>   13.6811   -0.0000 </r>
       <r>   13.7400    0.0000 </r>
       <r>   13.7831    0.0000 </r>
       <r>   13.8702    0.0000 </r>
       <r>   13.9492    0.0000 </r>
       <r>   14.0028    0.0000 </r>
       <r>   14.1283    0.0000 </r>
       <r>   14.4376    0.0000 </r>
       <r>   14.6063    0.0000 </r>
       <r>   14.6830    0.0000 </r>
       <r>   14.7500    0.0000 </r>
       <r>   14.7866    0.0000 </r>
      </set>
      <set comment="kpoint 3">
       <r>   -7.2030    1.0000 </r>
       <r>   -6.6762    1.0000 </r>
       <r>   -5.7642    1.0000 </r>
       <r>   -5.6741    1.0000 </r>
       <r>   -5.6080    1.0000 </r>
       <r>   -5.5544    1.0000 </r>
       <r>   -5.2450    1.0000 </r>
       <r>   -5.1760    1.0000 </r>
       <r>   -5.1161    1.0000 </r>
       <r>   -5.0548    1.0000 </r>
       <r>   -4.6236    1.0000 </r>
       <r>   -4.4191    1.0000 </r>
       <r>   -4.2923    1.0000 </r>
       <r>   -4.2246    1.0000 </r>
       <r>   -4.1675    1.0000 </r>
       <r>   -4.0732    1.0000 </r>
       <r>   -4.0236    1.0000 </r>
       <r>   -3.8972    1.0000 </r>
       <r>   -3.7660    1.0000 </r>
       <r>   -3.4994    1.0000 </r>
       <r>   -3.4319    1.0000 </r>
       <r>   -3.3519    1.0000 </r>
       <r>   -3.2691    1.0000 </r>
       <r>   -3.2120    1.0000 </r>
       <r>   -2.6777    1.0000 </r>
       <r>   -2.6062    1.0000 </r>
       <r>   -2.5206    1.0000 </r>
       <r>   -2.4212    1.0000 </r>
       <r>   -2.3199    1.0000 </r>
       <r>   -2.2850    1.0000 </r>
       <r>   -2.1429    1.0000 </r>
       <r>   -2.0080    1.0000 </r>
       <r>   -0.2415    1.0000 </r>
       <r>   -0.0983    1.0000 </r>
       <r>    0.0333    1.0000 </r>
       <r>    0.1162    1.0000 </r>
       <r>    0.3329    1.0000 </r>
       <r>    0.3531    1.0000 </r>
       <r>    0.6535    1.0000 </r>
       <r>    0.6891    1.0000 </r>
       <r>    0.8464    1.0000 </r>
       <r>    0.9317    1.0000 </r>
       <r>    0.9969    1.0000 </r>
       <r>    1.0354    1.0000 </r>
       <r>    1.1000    1.0000 </r>
       <r>    1.1085    1.0000 </r>
       <r>    1.1695    1.0000 </r>
       <r>    1.2497    1.0000 </r>
       <r>    1.2622    1.0000 </r>
       <r>    1.3490    1.0000 </r>
       <r>    1.3827    1.0000 </r>
       <r>    1.4604    1.0000 </r>
       <r>    1.5272    1.0000 </r>
       <r>    2.6142    1.0000 </r>
       <r>    2.6358    1.0000 </r>
       <r>    2.6753    1.0000 </r>
       <r>    2.7011    1.0000 </r>
       <r>    2.8057    1.0000 </r>
       <r>    2.8370    1.0000 </r>
       <r>    2.8816    1.0000 </r>
       <r>    2.9157    1.0000 </r>
       <r>    2.9685    1.0000 </r>
       <r>    3.0320    1.0000 </r>
       <r>    3.0611    1.0000 </r>
       <r>    3.1056    1.0000 </r>
       <r>    3.1436    1.0000 </r>
       <r>    3.5169    1.0000 </r>
       <r>    3.5463    1.0000 </r>
       <r>    3.6357    1.0000 </r>
       <r>    3.6768    1.0000 </r>
       <r>    3.8630    1.0000 </r>
       <r>    3.9284    1.0000 </r>
       <r>    4.0135    1.0000 </r>
       <r>    4.0756    1.0000 </r>
       <r>    4.2698    1.0000 </r>
       <r>    4.3080    1.0000 </r>
       <r>    4.3532    1.0000 </r>
       <r>    4.3867    1.0000 </r>
       <r>    4.4210    1.0000 </r>
       <r>    4.4530    1.0000 </r>
       <r>    4.4858    1.0000 </r>
       <r>    4.5290    1.0000 </r>
       <r>    4.5785    1.0000 </r>
       <r>    4.6268    1.0000 </r>
       <r>    4.6833    1.0000 </r>
       <r>    4.7319    1.0000 </r>
       <r>    4.7581    1.0000 </r>
       <r>    4.8420    1.0000 </r>
       <r>    4.9033    1.0000 </r>
       <r>    4.9406    1.0000 </r>
       <r>    4.9690    1.0000 </r>
       <r>    5.0114    1.0000 </r>
       <r>    5.3784    1.0000 </r>
       <r>    5.3878    1.0000 </r>
       <r>    5.5378    1.0000 </r>
       <r>    5.5708    1.0000 </r>
       <r>    5.6481    1.0000 </r>
       <r>    5.6717    1.0000 </r>
       <r>    5.7502    1.0000 </r>
       <r>    5.8387    1.0000 </r>
       <r>    5.9125    1.0000 </r>
       <r>    5.9681    1.0000 </r>
       <r>    6.1377    1.0000 </r>
       <r>    6.2067    1.0000 </r>
       <r>    6.2526    1.0000 </r>
       <r>    6.3137    1.0000 </r>
       <r>    6.3353    1.0000 </r>
       <r>    6.4007    1.0000 </r>
       <r>    6.4460    1.0000 </r>
       <r>    6.5237    1.0000 </r>
       <r>    6.5928    1.0000 </r>
       <r>    6.6656    1.0000 </r>
       <r>    6.7016    1.0000 </r>
       <r>    6.7527    1.0000 </r>
       <r>    6.7760    1.0000 </r>
       <r>    6.8453    1.0000 </r>
       <r>    6.8831    1.0000 </r>
       <r>    6.9545    1.0000 </r>
       <r>    7.0043    1.0000 </r>
       <r>    7.0242    1.0000 </r>
       <r>    7.0688    1.0000 </r>
       <r>    7.0937    1.0000 </r>
       <r>    7.1232    1.0000 </r>
       <r>    7.1944    1.0000 </r>
       <r>    7.2333    1.0000 </r>
       <r>    7.4743    1.0000 </r>
       <r>    7.7122    1.0007 </r>
       <r>    7.7926    1.0038 </r>
       <r>    9.6262   -0.0000 </r>
       <r>   10.0207   -0.0000 </r>
       <r>   10.3753   -0.0000 </r>
       <r>   10.5730   -0.0000 </r>
       <r>   11.7564   -0.0000 </r>
       <r>   12.0595   -0.0000 </r>
       <r>   12.3679   -0.0000 </r>
       <r>   12.4892   -0.0000 </r>
       <r>   12.5078   -0.0000 </r>
       <r>   12.5841   -0.0000 </r>
       <r>   12.6615   -0.0000 </r>
       <r>   12.7892   -0.0000 </r>
       <r>   12.8263   -0.0000 </r>
       <r>   12.8964   -0.0000 </r>
       <r>   12.9397   -0.0000 </r>
       <r>   12.9569   -0.0000 </r>
       <r>   12.9903   -0.0000 </r>
       <r>   13.0328   -0.0000 </r>
       <r>   13.0683   -0.0000 </r>
       <r>   13.1051   -0.0000 </r>
       <r>   13.1577   -0.0000 </r>
       <r>   13.2331   -0.0000 </r>
       <r>   13.4694   -0.0000 </r>
       <r>   13.5148   -0.0000 </r>
       <r>   13.5508   -0.0000 </r>
       <r>   13.6029   -0.0000 </r>
       <r>   13.6312   -0.0000 </r>
       <r>   13.6446   -0.0000 </r>
       <r>   13.6647   -0.0000 </r>
       <r>   13.7177    0.0000 </r>
       <r>   13.7485    0.0000 </r>
       <r>   13.9205    0.0000 </r>
       <r>   13.9616    0.0000 </r>
       <r>   14.0032    0.0000 </r>
       <r>   14.0668    0.0000 </r>
       <r>   14.4270    0.0000 </r>
       <r>   14.6128    0.0000 </r>
       <r>   14.7074    0.0000 </r>
       <r>   14.7473    0.0000 </r>
       <r>   14.8124    0.0000 </r>
      </set>
      <set comment="kpoint 4">
       <r>   -7.2024    1.0000 </r>
       <r>   -6.6710    1.0000 </r>
       <r>   -5.8434    1.0000 </r>
       <r>   -5.7027    1.0000 </r>
       <r>   -5.5765    1.0000 </r>
       <r>   -5.4590    1.0000 </r>
       <r>   -5.2927    1.0000 </r>
       <r>   -5.1814    1.0000 </r>
       <r>   -5.0820    1.0000 </r>
       <r>   -4.9700    1.0000 </r>
       <r>   -4.6623    1.0000 </r>
       <r>   -4.4693    1.0000 </r>
       <r>   -4.3695    1.0000 </r>
       <r>   -4.1831    1.0000 </r>
       <r>   -4.1515    1.0000 </r>
       <r>   -4.0894    1.0000 </r>
       <r>   -4.0516    1.0000 </r>
       <r>   -3.8926    1.0000 </r>
       <r>   -3.6839    1.0000 </r>
       <r>   -3.5338    1.0000 </r>
       <r>   -3.4529    1.0000 </r>
       <r>   -3.3614    1.0000 </r>
       <r>   -3.2514    1.0000 </r>
       <r>   -3.2198    1.0000 </r>
       <r>   -2.6615    1.0000 </r>
       <r>   -2.6052    1.0000 </r>
       <r>   -2.5114    1.0000 </r>
       <r>   -2.3369    1.0000 </r>
       <r>   -2.2948    1.0000 </r>
       <r>   -2.2405    1.0000 </r>
       <r>   -2.1739    1.0000 </r>
       <r>   -2.1265    1.0000 </r>
       <r>   -0.2521    1.0000 </r>
       <r>   -0.1168    1.0000 </r>
       <r>    0.0267    1.0000 </r>
       <r>    0.1197    1.0000 </r>
       <r>    0.3228    1.0000 </r>
       <r>    0.4006    1.0000 </r>
       <r>    0.6406    1.0000 </r>
       <r>    0.7489    1.0000 </r>
       <r>    0.8162    1.0000 </r>
       <r>    0.9035    1.0000 </r>
       <r>    0.9757    1.0000 </r>
       <r>    1.0423    1.0000 </r>
       <r>    1.0527    1.0000 </r>
       <r>    1.1360    1.0000 </r>
       <r>    1.1784    1.0000 </r>
       <r>    1.2344    1.0000 </r>
       <r>    1.2868    1.0000 </r>
       <r>    1.3387    1.0000 </r>
       <r>    1.3977    1.0000 </r>
       <r>    1.4545    1.0000 </r>
       <r>    1.5403    1.0000 </r>
       <r>    2.5548    1.0000 </r>
       <r>    2.6451    1.0000 </r>
       <r>    2.6884    1.0000 </r>
       <r>    2.7554    1.0000 </r>
       <r>    2.7887    1.0000 </r>
       <r>    2.8306    1.0000 </r>
       <r>    2.8633    1.0000 </r>
       <r>    2.9115    1.0000 </r>
       <r>    2.9651    1.0000 </r>
       <r>    3.0668    1.0000 </r>
       <r>    3.0909    1.0000 </r>
       <r>    3.1511    1.0000 </r>
       <r>    3.1787    1.0000 </r>
       <r>    3.4857    1.0000 </r>
       <r>    3.5146    1.0000 </r>
       <r>    3.6263    1.0000 </r>
       <r>    3.6820    1.0000 </r>
       <r>    3.9142    1.0000 </r>
       <r>    3.9712    1.0000 </r>
       <r>    4.0098    1.0000 </r>
       <r>    4.1265    1.0000 </r>
       <r>    4.2579    1.0000 </r>
       <r>    4.2731    1.0000 </r>
       <r>    4.3246    1.0000 </r>
       <r>    4.3577    1.0000 </r>
       <r>    4.3781    1.0000 </r>
       <r>    4.4251    1.0000 </r>
       <r>    4.4632    1.0000 </r>
       <r>    4.4881    1.0000 </r>
       <r>    4.5469    1.0000 </r>
       <r>    4.5833    1.0000 </r>
       <r>    4.6961    1.0000 </r>
       <r>    4.7106    1.0000 </r>
       <r>    4.7694    1.0000 </r>
       <r>    4.8118    1.0000 </r>
       <r>    4.9003    1.0000 </r>
       <r>    4.9893    1.0000 </r>
       <r>    5.0181    1.0000 </r>
       <r>    5.0572    1.0000 </r>
       <r>    5.3639    1.0000 </r>
       <r>    5.3940    1.0000 </r>
       <r>    5.4677    1.0000 </r>
       <r>    5.5581    1.0000 </r>
       <r>    5.6577    1.0000 </r>
       <r>    5.7197    1.0000 </r>
       <r>    5.8005    1.0000 </r>
       <r>    5.8419    1.0000 </r>
       <r>    5.8995    1.0000 </r>
       <r>    5.9822    1.0000 </r>
       <r>    6.1061    1.0000 </r>
       <r>    6.1549    1.0000 </r>
       <r>    6.2117    1.0000 </r>
       <r>    6.3020    1.0000 </r>
       <r>    6.3763    1.0000 </r>
       <r>    6.4329    1.0000 </r>
       <r>    6.4838    1.0000 </r>
       <r>    6.5432    1.0000 </r>
       <r>    6.6184    1.0000 </r>
       <r>    6.6764    1.0000 </r>
       <r>    6.7539    1.0000 </r>
       <r>    6.7820    1.0000 </r>
       <r>    6.8405    1.0000 </r>
       <r>    6.8823    1.0000 </r>
       <r>    6.9068    1.0000 </r>
       <r>    6.9366    1.0000 </r>
       <r>    6.9544    1.0000 </r>
       <r>    6.9790    1.0000 </r>
       <r>    7.0416    1.0000 </r>
       <r>    7.0589    1.0000 </r>
       <r>    7.1136    1.0000 </r>
       <r>    7.1609    1.0000 </r>
       <r>    7.2099    1.0000 </r>
       <r>    7.4790    1.0000 </r>
       <r>    7.7092    1.0006 </r>
       <r>    7.7939    1.0039 </r>
       <r>    9.5880   -0.0000 </r>
       <r>   10.1689   -0.0000 </r>
       <r>   10.2489   -0.0000 </r>
       <r>   10.5898   -0.0000 </r>
       <r>   11.9010   -0.0000 </r>
       <r>   11.9448   -0.0000 </r>
       <r>   12.3372   -0.0000 </r>
       <r>   12.4316   -0.0000 </r>
       <r>   12.5400   -0.0000 </r>
       <r>   12.5958   -0.0000 </r>
       <r>   12.6660   -0.0000 </r>
       <r>   12.7708   -0.0000 </r>
       <r>   12.7972   -0.0000 </r>
       <r>   12.8387   -0.0000 </r>
       <r>   12.9179   -0.0000 </r>
       <r>   12.9760   -0.0000 </r>
       <r>   13.0054   -0.0000 </r>
       <r>   13.0655   -0.0000 </r>
       <r>   13.1104   -0.0000 </r>
       <r>   13.1779   -0.0000 </r>
       <r>   13.2074   -0.0000 </r>
       <r>   13.2479   -0.0000 </r>
       <r>   13.4427   -0.0000 </r>
       <r>   13.4982   -0.0000 </r>
       <r>   13.5228   -0.0000 </r>
       <r>   13.5657   -0.0000 </r>
       <r>   13.5989   -0.0000 </r>
       <r>   13.6238   -0.0000 </r>
       <r>   13.6666   -0.0000 </r>
       <r>   13.7375    0.0000 </r>
       <r>   13.8099    0.0000 </r>
       <r>   13.8376    0.0000 </r>
       <r>   13.9349    0.0000 </r>
       <r>   13.9808    0.0000 </r>
       <r>   14.1551    0.0000 </r>
       <r>   14.4369    0.0000 </r>
       <r>   14.6150    0.0000 </r>
       <r>   14.6904    0.0000 </r>
       <r>   14.7329    0.0000 </r>
       <r>   14.8029    0.0000 </r>
      </set>
      <set comment="kpoint 5">
       <r>   -7.0368    1.0000 </r>
       <r>   -6.5275    1.0000 </r>
       <r>   -6.4593    1.0000 </r>
       <r>   -5.9758    1.0000 </r>
       <r>   -5.5552    1.0000 </r>
       <r>   -5.4402    1.0000 </r>
       <r>   -5.1182    1.0000 </r>
       <r>   -5.0725    1.0000 </r>
       <r>   -4.9857    1.0000 </r>
       <r>   -4.8832    1.0000 </r>
       <r>   -4.6414    1.0000 </r>
       <r>   -4.5308    1.0000 </r>
       <r>   -4.4616    1.0000 </r>
       <r>   -4.3956    1.0000 </r>
       <r>   -4.0563    1.0000 </r>
       <r>   -3.9880    1.0000 </r>
       <r>   -3.6076    1.0000 </r>
       <r>   -3.5125    1.0000 </r>
       <r>   -3.4460    1.0000 </r>
       <r>   -3.4297    1.0000 </r>
       <r>   -3.3467    1.0000 </r>
       <r>   -3.2803    1.0000 </r>
       <r>   -3.1804    1.0000 </r>
       <r>   -3.1167    1.0000 </r>
       <r>   -2.9031    1.0000 </r>
       <r>   -2.8519    1.0000 </r>
       <r>   -2.7350    1.0000 </r>
       <r>   -2.7031    1.0000 </r>
       <r>   -2.6440    1.0000 </r>
       <r>   -2.3272    1.0000 </r>
       <r>   -2.2502    1.0000 </r>
       <r>   -2.1636    1.0000 </r>
       <r>   -0.2696    1.0000 </r>
       <r>   -0.1698    1.0000 </r>
       <r>    0.3718    1.0000 </r>
       <r>    0.4350    1.0000 </r>
       <r>    0.4505    1.0000 </r>
       <r>    0.4938    1.0000 </r>
       <r>    0.5952    1.0000 </r>
       <r>    0.6314    1.0000 </r>
       <r>    0.7100    1.0000 </r>
       <r>    0.7844    1.0000 </r>
       <r>    0.7980    1.0000 </r>
       <r>    0.8367    1.0000 </r>
       <r>    0.9311    1.0000 </r>
       <r>    1.0004    1.0000 </r>
       <r>    1.1327    1.0000 </r>
       <r>    1.2131    1.0000 </r>
       <r>    1.2828    1.0000 </r>
       <r>    1.3229    1.0000 </r>
       <r>    1.9353    1.0000 </r>
       <r>    1.9575    1.0000 </r>
       <r>    2.0069    1.0000 </r>
       <r>    2.0303    1.0000 </r>
       <r>    2.0907    1.0000 </r>
       <r>    2.1670    1.0000 </r>
       <r>    2.4101    1.0000 </r>
       <r>    2.5093    1.0000 </r>
       <r>    2.5450    1.0000 </r>
       <r>    2.7139    1.0000 </r>
       <r>    2.7929    1.0000 </r>
       <r>    3.0923    1.0000 </r>
       <r>    3.2374    1.0000 </r>
       <r>    3.2789    1.0000 </r>
       <r>    3.3339    1.0000 </r>
       <r>    3.4294    1.0000 </r>
       <r>    3.4920    1.0000 </r>
       <r>    3.5378    1.0000 </r>
       <r>    3.8267    1.0000 </r>
       <r>    3.9226    1.0000 </r>
       <r>    3.9598    1.0000 </r>
       <r>    3.9927    1.0000 </r>
       <r>    4.0583    1.0000 </r>
       <r>    4.0625    1.0000 </r>
       <r>    4.1221    1.0000 </r>
       <r>    4.2234    1.0000 </r>
       <r>    4.2855    1.0000 </r>
       <r>    4.4547    1.0000 </r>
       <r>    4.4929    1.0000 </r>
       <r>    4.5871    1.0000 </r>
       <r>    4.7005    1.0000 </r>
       <r>    4.7677    1.0000 </r>
       <r>    4.8601    1.0000 </r>
       <r>    4.8655    1.0000 </r>
       <r>    4.9243    1.0000 </r>
       <r>    4.9749    1.0000 </r>
       <r>    5.0143    1.0000 </r>
       <r>    5.0709    1.0000 </r>
       <r>    5.1742    1.0000 </r>
       <r>    5.2937    1.0000 </r>
       <r>    5.3449    1.0000 </r>
       <r>    5.3841    1.0000 </r>
       <r>    5.4525    1.0000 </r>
       <r>    5.4855    1.0000 </r>
       <r>    5.5098    1.0000 </r>
       <r>    5.5237    1.0000 </r>
       <r>    5.5980    1.0000 </r>
       <r>    5.6095    1.0000 </r>
       <r>    5.6435    1.0000 </r>
       <r>    5.7306    1.0000 </r>
       <r>    5.7823    1.0000 </r>
       <r>    5.8292    1.0000 </r>
       <r>    5.9181    1.0000 </r>
       <r>    5.9434    1.0000 </r>
       <r>    6.0206    1.0000 </r>
       <r>    6.1097    1.0000 </r>
       <r>    6.1748    1.0000 </r>
       <r>    6.2198    1.0000 </r>
       <r>    6.3138    1.0000 </r>
       <r>    6.3401    1.0000 </r>
       <r>    6.3566    1.0000 </r>
       <r>    6.4361    1.0000 </r>
       <r>    6.5194    1.0000 </r>
       <r>    6.5519    1.0000 </r>
       <r>    6.5936    1.0000 </r>
       <r>    6.6347    1.0000 </r>
       <r>    6.6949    1.0000 </r>
       <r>    6.8095    1.0000 </r>
       <r>    6.8320    1.0000 </r>
       <r>    6.8802    1.0000 </r>
       <r>    6.9313    1.0000 </r>
       <r>    6.9804    1.0000 </r>
       <r>    7.0868    1.0000 </r>
       <r>    7.3694    1.0000 </r>
       <r>    7.4782    1.0000 </r>
       <r>    7.6185    1.0001 </r>
       <r>    7.6623    1.0002 </r>
       <r>    7.9808    1.0351 </r>
       <r>   10.2259   -0.0000 </r>
       <r>   10.4459   -0.0000 </r>
       <r>   10.6261   -0.0000 </r>
       <r>   11.2231   -0.0000 </r>
       <r>   11.2603   -0.0000 </r>
       <r>   11.5753   -0.0000 </r>
       <r>   11.6979   -0.0000 </r>
       <r>   11.7842   -0.0000 </r>
       <r>   12.1578   -0.0000 </r>
       <r>   12.1902   -0.0000 </r>
       <r>   12.6733   -0.0000 </r>
       <r>   12.7271   -0.0000 </r>
       <r>   12.7569   -0.0000 </r>
       <r>   12.8419   -0.0000 </r>
       <r>   12.9286   -0.0000 </r>
       <r>   13.0071   -0.0000 </r>
       <r>   13.0622   -0.0000 </r>
       <r>   13.0939   -0.0000 </r>
       <r>   13.1124   -0.0000 </r>
       <r>   13.1948   -0.0000 </r>
       <r>   13.2471   -0.0000 </r>
       <r>   13.3234   -0.0000 </r>
       <r>   13.4537   -0.0000 </r>
       <r>   13.5110   -0.0000 </r>
       <r>   13.5651   -0.0000 </r>
       <r>   13.6154   -0.0000 </r>
       <r>   13.6769   -0.0000 </r>
       <r>   13.7191    0.0000 </r>
       <r>   13.7594    0.0000 </r>
       <r>   13.7953    0.0000 </r>
       <r>   13.8416    0.0000 </r>
       <r>   13.9228    0.0000 </r>
       <r>   13.9651    0.0000 </r>
       <r>   14.1033    0.0000 </r>
       <r>   14.1408    0.0000 </r>
       <r>   14.5156    0.0000 </r>
       <r>   14.6379    0.0000 </r>
       <r>   14.6875    0.0000 </r>
       <r>   14.8609    0.0000 </r>
       <r>   14.8965    0.0000 </r>
      </set>
      <set comment="kpoint 6">
       <r>   -7.0280    1.0000 </r>
       <r>   -6.5225    1.0000 </r>
       <r>   -6.4823    1.0000 </r>
       <r>   -5.9994    1.0000 </r>
       <r>   -5.5450    1.0000 </r>
       <r>   -5.4135    1.0000 </r>
       <r>   -5.0946    1.0000 </r>
       <r>   -5.0428    1.0000 </r>
       <r>   -4.9891    1.0000 </r>
       <r>   -4.8814    1.0000 </r>
       <r>   -4.6520    1.0000 </r>
       <r>   -4.5562    1.0000 </r>
       <r>   -4.4494    1.0000 </r>
       <r>   -4.4362    1.0000 </r>
       <r>   -4.0837    1.0000 </r>
       <r>   -3.9700    1.0000 </r>
       <r>   -3.5857    1.0000 </r>
       <r>   -3.4804    1.0000 </r>
       <r>   -3.4659    1.0000 </r>
       <r>   -3.4291    1.0000 </r>
       <r>   -3.3868    1.0000 </r>
       <r>   -3.2687    1.0000 </r>
       <r>   -3.2052    1.0000 </r>
       <r>   -3.1017    1.0000 </r>
       <r>   -2.9196    1.0000 </r>
       <r>   -2.8433    1.0000 </r>
       <r>   -2.7506    1.0000 </r>
       <r>   -2.6679    1.0000 </r>
       <r>   -2.6091    1.0000 </r>
       <r>   -2.3244    1.0000 </r>
       <r>   -2.2478    1.0000 </r>
       <r>   -2.1922    1.0000 </r>
       <r>   -0.3086    1.0000 </r>
       <r>   -0.1842    1.0000 </r>
       <r>    0.3512    1.0000 </r>
       <r>    0.4767    1.0000 </r>
       <r>    0.5021    1.0000 </r>
       <r>    0.5501    1.0000 </r>
       <r>    0.5803    1.0000 </r>
       <r>    0.6588    1.0000 </r>
       <r>    0.6860    1.0000 </r>
       <r>    0.7430    1.0000 </r>
       <r>    0.7765    1.0000 </r>
       <r>    0.8253    1.0000 </r>
       <r>    0.8840    1.0000 </r>
       <r>    1.0426    1.0000 </r>
       <r>    1.1920    1.0000 </r>
       <r>    1.2425    1.0000 </r>
       <r>    1.2841    1.0000 </r>
       <r>    1.3488    1.0000 </r>
       <r>    1.8735    1.0000 </r>
       <r>    1.9345    1.0000 </r>
       <r>    1.9774    1.0000 </r>
       <r>    2.0248    1.0000 </r>
       <r>    2.0587    1.0000 </r>
       <r>    2.1319    1.0000 </r>
       <r>    2.4288    1.0000 </r>
       <r>    2.5082    1.0000 </r>
       <r>    2.5718    1.0000 </r>
       <r>    2.7186    1.0000 </r>
       <r>    2.7843    1.0000 </r>
       <r>    3.1181    1.0000 </r>
       <r>    3.2088    1.0000 </r>
       <r>    3.3288    1.0000 </r>
       <r>    3.4085    1.0000 </r>
       <r>    3.4284    1.0000 </r>
       <r>    3.4968    1.0000 </r>
       <r>    3.5431    1.0000 </r>
       <r>    3.8378    1.0000 </r>
       <r>    3.8651    1.0000 </r>
       <r>    3.8899    1.0000 </r>
       <r>    3.9347    1.0000 </r>
       <r>    4.0053    1.0000 </r>
       <r>    4.0788    1.0000 </r>
       <r>    4.1749    1.0000 </r>
       <r>    4.2650    1.0000 </r>
       <r>    4.3118    1.0000 </r>
[...]
      </set>
     </set>
    </set>
   </array>
  </eigenvalues>
  <separator name="orbital magnetization" >
   <v name="MAGDIPOLOUT">      0.00000000      0.00000000      0.00000000</v>
  </separator>
  <dos>
   <i name="efermi">      8.23551897 </i>
   <total>
    <array>
     <dimension dim="1">gridpoints</dimension>
     <dimension dim="2">spin</dimension>
     <field>energy</field>
     <field>total</field>
     <field>integrated</field>
     <set>
      <set comment="spin 1">
       <r>    -9.3794     0.0000     0.0000 </r>
       <r>    -9.2902     0.0000     0.0000 </r>
       <r>    -9.2011     0.0000     0.0000 </r>
       <r>    -9.1119     0.0000     0.0000 </r>
       <r>    -9.0227    -0.0000    -0.0000 </r>
       <r>    -8.9335    -0.0000    -0.0000 </r>
       <r>    -8.8444    -0.0000    -0.0000 </r>
       <r>    -8.7552    -0.0000    -0.0000 </r>
       <r>    -8.6660    -0.0000    -0.0000 </r>
       <r>    -8.5768    -0.0000    -0.0000 </r>
       <r>    -8.4876    -0.0000    -0.0000 </r>
       <r>    -8.3985    -0.0000    -0.0000 </r>
       <r>    -8.3093    -0.0000    -0.0000 </r>
       <r>    -8.2201    -0.0000    -0.0000 </r>
       <r>    -8.1309    -0.0000    -0.0000 </r>
       <r>    -8.0417    -0.0000    -0.0000 </r>
       <r>    -7.9526    -0.0002    -0.0000 </r>
       <r>    -7.8634    -0.0013    -0.0001 </r>
       <r>    -7.7742    -0.0069    -0.0007 </r>
       <r>    -7.6850    -0.0228    -0.0028 </r>
       <r>    -7.5959    -0.0442    -0.0067 </r>
       <r>    -7.5067    -0.0283    -0.0092 </r>
       <r>    -7.4175     0.1330     0.0026 </r>
       <r>    -7.3283     0.6245     0.0583 </r>
       <r>    -7.2391     1.5819     0.1994 </r>
       <r>    -7.1500     2.9004     0.4580 </r>
       <r>    -7.0608     4.1660     0.8296 </r>
       <r>    -6.9716     4.6831     1.2472 </r>
       <r>    -6.8824     4.0893     1.6119 </r>
       <r>    -6.7932     2.9562     1.8755 </r>
       <r>    -6.7041     2.5290     2.1010 </r>
       <r>    -6.6149     4.0162     2.4592 </r>
       <r>    -6.5257     7.2468     3.1055 </r>
       <r>    -6.4365    10.1186     4.0078 </r>
       <r>    -6.3474    10.3597     4.9317 </r>
       <r>    -6.2582     7.5557     5.6055 </r>
       <r>    -6.1690     3.7151     5.9368 </r>
       <r>    -6.0798     2.0676     6.1212 </r>
       <r>    -5.9906     3.9863     6.4767 </r>
       <r>    -5.9015     7.8352     7.1754 </r>
       <r>    -5.8123    11.0947     8.1648 </r>
       <r>    -5.7231    12.1281     9.2464 </r>
       <r>    -5.6339    11.0444    10.2313 </r>
       <r>    -5.5447     9.3217    11.0626 </r>
       <r>    -5.4556     8.0962    11.7846 </r>
       <r>    -5.3664     7.7734    12.4778 </r>
       <r>    -5.2772     8.5429    13.2397 </r>
       <r>    -5.1880    10.4839    14.1746 </r>
       <r>    -5.0989    12.8399    15.3197 </r>
       <r>    -5.0097    13.4048    16.5151 </r>
       <r>    -4.9205    10.9118    17.4882 </r>
       <r>    -4.8313     7.2823    18.1376 </r>
       <r>    -4.7421     5.7579    18.6511 </r>
       <r>    -4.6530     7.8802    19.3538 </r>
       <r>    -4.5638    12.7711    20.4928 </r>
       <r>    -4.4746    17.8885    22.0880 </r>
       <r>    -4.3854    19.4241    23.8202 </r>
       <r>    -4.2962    15.9676    25.2442 </r>
       <r>    -4.2071    12.5008    26.3590 </r>
       <r>    -4.1179    14.4429    27.6470 </r>
       <r>    -4.0287    19.4722    29.3835 </r>
       <r>    -3.9395    21.3347    31.2861 </r>
       <r>    -3.8504    18.3948    32.9265 </r>
       <r>    -3.7612    14.0280    34.1775 </r>
       <r>    -3.6720    12.0239    35.2498 </r>
       <r>    -3.5828    14.0100    36.4992 </r>
       <r>    -3.4936    18.2897    38.1303 </r>
       <r>    -3.4045    21.2159    40.0223 </r>
       <r>    -3.3153    21.6977    41.9572 </r>
       <r>    -3.2261    21.1588    43.8441 </r>
       <r>    -3.1369    19.5542    45.5880 </r>
       <r>    -3.0477    17.1349    47.1160 </r>
       <r>    -2.9586    16.8817    48.6215 </r>
       <r>    -2.8694    20.1092    50.4148 </r>
       <r>    -2.7802    23.9222    52.5482 </r>
       <r>    -2.6910    24.9066    54.7693 </r>
       <r>    -2.6019    21.5153    56.6880 </r>
       <r>    -2.5127    15.1181    58.0362 </r>
       <r>    -2.4235    10.7686    58.9966 </r>
       <r>    -2.3343    11.8908    60.0570 </r>
       <r>    -2.2451    14.9674    61.3917 </r>
       <r>    -2.1560    14.3139    62.6682 </r>
       <r>    -2.0668     9.5244    63.5176 </r>
       <r>    -1.9776     4.3845    63.9086 </r>
       <r>    -1.8884     1.3210    64.0264 </r>
       <r>    -1.7992     0.1003    64.0354 </r>
       <r>    -1.7101    -0.1888    64.0185 </r>
       <r>    -1.6209    -0.1401    64.0060 </r>
       <r>    -1.5317    -0.0531    64.0013 </r>
       <r>    -1.4425    -0.0124    64.0002 </r>
       <r>    -1.3533    -0.0019    64.0000 </r>
       <r>    -1.2642    -0.0004    64.0000 </r>
       <r>    -1.1750    -0.0016    63.9998 </r>
       <r>    -1.0858    -0.0075    63.9992 </r>
       <r>    -0.9966    -0.0192    63.9975 </r>
       <r>    -0.9075    -0.0129    63.9963 </r>
       <r>    -0.8183     0.0691    64.0025 </r>
       <r>    -0.7291     0.2217    64.0222 </r>
       <r>    -0.6399     0.2913    64.0482 </r>
       <r>    -0.5507     0.2561    64.0711 </r>
       <r>    -0.4616     0.7309    64.1362 </r>
       <r>    -0.3724     2.6449    64.3721 </r>
       <r>    -0.2832     5.7209    64.8823 </r>
       <r>    -0.1940     8.0623    65.6013 </r>
       <r>    -0.1048     8.3495    66.3459 </r>
       <r>    -0.0157     7.4586    67.0110 </r>
       <r>     0.0735     7.1336    67.6472 </r>
       <r>     0.1627     8.6275    68.4166 </r>
       <r>     0.2519    12.8656    69.5639 </r>
       <r>     0.3410    18.7656    71.2374 </r>
       <r>     0.4302    22.3054    73.2266 </r>
       <r>     0.5194    21.8409    75.1743 </r>
       <r>     0.6086    21.5333    77.0946 </r>
       <r>     0.6978    25.1556    79.3380 </r>
       <r>     0.7869    30.2571    82.0362 </r>
       <r>     0.8761    31.9434    84.8849 </r>
       <r>     0.9653    29.5800    87.5228 </r>
       <r>     1.0545    27.3977    89.9661 </r>
       <r>     1.1437    29.2822    92.5775 </r>
       <r>     1.2328    33.3589    95.5524 </r>
       <r>     1.3220    33.3015    98.5221 </r>
       <r>     1.4112    26.0278   100.8433 </r>
       <r>     1.5004    14.9952   102.1805 </r>
       <r>     1.5895     5.5992   102.6798 </r>
       <r>     1.6787     0.9271   102.7625 </r>
       <r>     1.7679     1.7777   102.9211 </r>
       <r>     1.8571     7.0441   103.5492 </r>
       <r>     1.9463    13.5993   104.7620 </r>
       <r>     2.0354    18.4323   106.4058 </r>
       <r>     2.1246    20.1839   108.2058 </r>
       <r>     2.2138    17.9437   109.8059 </r>
       <r>     2.3030    12.6537   110.9344 </r>
       <r>     2.3922     8.6441   111.7053 </r>
       <r>     2.4813     9.2696   112.5319 </r>
       <r>     2.5705    13.2404   113.7127 </r>
       <r>     2.6597    16.6503   115.1975 </r>
       <r>     2.7489    16.7999   116.6957 </r>
       <r>     2.8380    14.7007   118.0067 </r>
       <r>     2.9272    14.5108   119.3007 </r>
       <r>     3.0164    18.8824   120.9847 </r>
       <r>     3.1056    24.8721   123.2027 </r>
       <r>     3.1948    27.5861   125.6628 </r>
       <r>     3.2839    26.9190   128.0634 </r>
       <r>     3.3731    26.6076   130.4362 </r>
       <r>     3.4623    28.0551   132.9381 </r>
       <r>     3.5515    27.9943   135.4346 </r>
       <r>     3.6407    23.5589   137.5356 </r>
       <r>     3.7298    17.9777   139.1388 </r>
       <r>     3.8190    16.6310   140.6220 </r>
       <r>     3.9082    19.2822   142.3415 </r>
       <r>     3.9974    21.0098   144.2151 </r>
       <r>     4.0865    19.7175   145.9735 </r>
       <r>     4.1757    18.9282   147.6615 </r>
       <r>     4.2649    22.3835   149.6577 </r>
       <r>     4.3541    28.5666   152.2052 </r>
       <r>     4.4433    33.1942   155.1654 </r>
       <r>     4.5324    34.3482   158.2285 </r>
       <r>     4.6216    33.0283   161.1739 </r>
       <r>     4.7108    31.9022   164.0189 </r>
       <r>     4.8000    32.9311   166.9557 </r>
       <r>     4.8892    35.2080   170.0955 </r>
       <r>     4.9783    36.3275   173.3351 </r>
       <r>     5.0675    34.6800   176.4278 </r>
       <r>     5.1567    31.3169   179.2206 </r>
       <r>     5.2459    29.6312   181.8631 </r>
       <r>     5.3350    30.5114   184.5841 </r>
       <r>     5.4242    31.5105   187.3941 </r>
       <r>     5.5134    32.5309   190.2952 </r>
       <r>     5.6026    35.4592   193.4574 </r>
       <r>     5.6918    38.7334   196.9116 </r>
       <r>     5.7809    39.3681   200.4224 </r>
       <r>     5.8701    37.5786   203.7736 </r>
       <r>     5.9593    34.8263   206.8793 </r>
       <r>     6.0485    31.5626   209.6941 </r>
       <r>     6.1377    28.7803   212.2606 </r>
       <r>     6.2268    28.1888   214.7745 </r>
       <r>     6.3160    30.1140   217.4600 </r>
       <r>     6.4052    32.8141   220.3863 </r>
       <r>     6.4944    33.9192   223.4112 </r>
       <r>     6.5835    31.9309   226.2587 </r>
       <r>     6.6727    27.9518   228.7514 </r>
       <r>     6.7619    25.9591   231.0664 </r>
       <r>     6.8511    28.6390   233.6204 </r>
       <r>     6.9403    33.5294   236.6105 </r>
       <r>     7.0294    34.7108   239.7060 </r>
       <r>     7.1186    29.1061   242.3016 </r>
       <r>     7.2078    20.7855   244.1553 </r>
       <r>     7.2970    16.0158   245.5835 </r>
       <r>     7.3862    16.0262   247.0127 </r>
       <r>     7.4753    18.0799   248.6251 </r>
       <r>     7.5645    19.5365   250.3673 </r>
       <r>     7.6537    18.7795   252.0420 </r>
       <r>     7.7429    15.4638   253.4211 </r>
       <r>     7.8320    10.8969   254.3928 </r>
       <r>     7.9212     7.0790   255.0241 </r>
       <r>     8.0104     4.8569   255.4573 </r>
       <r>     8.0996     3.4868   255.7682 </r>
       <r>     8.1888     2.0743   255.9532 </r>
       <r>     8.2779     0.7424   256.0194 </r>
       <r>     8.3671     0.0137   256.0206 </r>
       <r>     8.4563    -0.1339   256.0087 </r>
       <r>     8.5455    -0.0729   256.0022 </r>
       <r>     8.6347    -0.0220   256.0002 </r>
       <r>     8.7238    -0.0100   255.9993 </r>
       <r>     8.8130    -0.0159   255.9979 </r>
       <r>     8.9022    -0.0048   255.9975 </r>
       <r>     8.9914     0.0770   256.0044 </r>
       <r>     9.0805     0.2190   256.0239 </r>
       <r>     9.1697     0.3012   256.0507 </r>
       <r>     9.2589     0.2681   256.0747 </r>
       <r>     9.3481     0.2490   256.0969 </r>
       <r>     9.4373     0.5357   256.1446 </r>
       <r>     9.5264     1.3298   256.2632 </r>
       <r>     9.6156     2.0483   256.4459 </r>
       <r>     9.7048     1.7480   256.6018 </r>
       <r>     9.7940     0.6825   256.6626 </r>
       <r>     9.8832    -0.0357   256.6595 </r>
       <r>     9.9723     0.1548   256.6733 </r>
       <r>    10.0615     1.4017   256.7983 </r>
       <r>    10.1507     3.6098   257.1202 </r>
       <r>    10.2399     5.7194   257.6302 </r>
       <r>    10.3290     6.7864   258.2354 </r>
       <r>    10.4182     7.5239   258.9064 </r>
       <r>    10.5074     8.6194   259.6751 </r>
       <r>    10.5966     9.3925   260.5127 </r>
       <r>    10.6858     8.7291   261.2911 </r>
       <r>    10.7749     6.4248   261.8641 </r>
       <r>    10.8641     3.7588   262.1993 </r>
       <r>    10.9533     1.7168   262.3524 </r>
       <r>    11.0425     0.7030   262.4151 </r>
       <r>    11.1317     1.8104   262.5765 </r>
       <r>    11.2208     5.0864   263.0301 </r>
       <r>    11.3100     8.2638   263.7671 </r>
       <r>    11.3992     9.6715   264.6296 </r>
       <r>    11.4884    10.1503   265.5348 </r>
       <r>    11.5775    11.0224   266.5177 </r>
       <r>    11.6667    12.7185   267.6520 </r>
       <r>    11.7559    14.8855   268.9794 </r>
       <r>    11.8451    16.5283   270.4534 </r>
       <r>    11.9343    17.2747   271.9939 </r>
       <r>    12.0234    17.6163   273.5649 </r>
       <r>    12.1126    16.9992   275.0809 </r>
       <r>    12.2018    13.9318   276.3233 </r>
       <r>    12.2910     9.3988   277.1615 </r>
       <r>    12.3802     7.5298   277.8330 </r>
       <r>    12.4693    10.5905   278.7774 </r>
       <r>    12.5585    16.3605   280.2364 </r>
       <r>    12.6477    21.7896   282.1796 </r>
       <r>    12.7369    25.7819   284.4788 </r>
       <r>    12.8261    28.2902   287.0017 </r>
       <r>    12.9152    29.5337   289.6355 </r>
       <r>    13.0044    29.8854   292.3006 </r>
       <r>    13.0936    29.4448   294.9264 </r>
       <r>    13.1828    27.6845   297.3953 </r>
       <r>    13.2719    23.8969   299.5264 </r>
       <r>    13.3611    19.8323   301.2950 </r>
       <r>    13.4503    19.9117   303.0707 </r>
       <r>    13.5395    24.9737   305.2978 </r>
       <r>    13.6287    29.8553   307.9603 </r>
       <r>    13.7178    30.5582   310.6854 </r>
       <r>    13.8070    29.0321   313.2745 </r>
       <r>    13.8962    28.7618   315.8394 </r>
       <r>    13.9854    29.7541   318.4928 </r>
       <r>    14.0746    29.6198   321.1343 </r>
       <r>    14.1637    26.2891   323.4787 </r>
       <r>    14.2529    19.0646   325.1789 </r>
       <r>    14.3421    10.4783   326.1133 </r>
       <r>    14.4313     5.9421   326.6432 </r>
       <r>    14.5204     8.9114   327.4379 </r>
       <r>    14.6096    16.5241   328.9115 </r>
       <r>    14.6988    21.3943   330.8194 </r>
       <r>    14.7880    19.5734   332.5649 </r>
       <r>    14.8772    13.8414   333.7993 </r>
       <r>    14.9663     7.9545   334.5087 </r>
       <r>    15.0555     3.5435   334.8247 </r>
       <r>    15.1447     1.9238   334.9962 </r>
       <r>    15.2339     3.0011   335.2639 </r>
       <r>    15.3231     4.0897   335.6286 </r>
       <r>    15.4122     3.1668   335.9110 </r>
       <r>    15.5014     1.2431   336.0219 </r>
       <r>    15.5906     0.0586   336.0271 </r>
       <r>    15.6798    -0.1808   336.0110 </r>
       <r>    15.7689    -0.0939   336.0026 </r>
       <r>    15.8581    -0.0247   336.0004 </r>
       <r>    15.9473    -0.0040   336.0000 </r>
       <r>    16.0365    -0.0004   336.0000 </r>
       <r>    16.1257    -0.0000   336.0000 </r>
       <r>    16.2148    -0.0000   336.0000 </r>
       <r>    16.3040    -0.0000   336.0000 </r>
       <r>    16.3932    -0.0000   336.0000 </r>
       <r>    16.4824    -0.0000   336.0000 </r>
       <r>    16.5716    -0.0000   336.0000 </r>
       <r>    16.6607    -0.0000   336.0000 </r>
       <r>    16.7499     0.0000   336.0000 </r>
       <r>    16.8391     0.0000   336.0000 </r>
       <r>    16.9283     0.0000   336.0000 </r>
       <r>    17.0174     0.0000   336.0000 </r>
       <r>    17.1066     0.0000   336.0000 </r>
       <r>    17.1958     0.0000   336.0000 </r>
       <r>    17.2850     0.0000   336.0000 </r>
       <r>    17.3742     0.0000   336.0000 </r>
      </set>
     </set>
    </array>
   </total>
  </dos>
 </calculation>
 <structure name="finalpos" >
  <crystal>
   <varray name="basis" >
    <v>       8.74331558       0.00000000       0.00000000 </v>
    <v>       0.00000000       8.74331558       0.00000000 </v>
    <v>       0.00000000       0.00000000       8.74331558 </v>
   </varray>
   <i name="volume">    668.38771987 </i>
   <varray name="rec_basis" >
    <v>       0.11437309       0.00000000       0.00000000 </v>
    <v>       0.00000000       0.11437309       0.00000000 </v>
    <v>       0.00000000       0.00000000       0.11437309 </v>
   </varray>
  </crystal>
  <varray name="positions" >
   <v>       0.13020617       0.12507343       0.12236912 </v>
   <v>       0.12743351       0.38028258       0.38045705 </v>
   <v>       0.37175438       0.12611413       0.36852718 </v>
   <v>       0.37992438       0.37815544       0.12086660 </v>
   <v>       0.12520821       0.12221081       0.62580316 </v>
   <v>       0.12028047       0.37441060       0.88169563 </v>
   <v>       0.38165276       0.12634978       0.87533739 </v>
   <v>       0.37690690       0.37665310       0.62406790 </v>
   <v>       0.12003872       0.62860515       0.12925704 </v>
   <v>       0.12299534       0.87993194       0.37692792 </v>
   <v>       0.36985452       0.63173362       0.37784393 </v>
   <v>       0.37581839       0.87559481       0.11445204 </v>
   <v>       0.12920570       0.62356159       0.61498586 </v>
   <v>       0.12828579       0.86895471       0.87740356 </v>
   <v>       0.37061579       0.62660110       0.87536798 </v>
   <v>       0.37885136       0.87374854       0.62296146 </v>
   <v>       0.62276151       0.12583067       0.12705659 </v>
   <v>       0.61717892       0.37567732       0.37317114 </v>
   <v>       0.87032818       0.11399140       0.38298845 </v>
   <v>       0.88307306       0.37051556       0.12131536 </v>
   <v>       0.62990382       0.12777328       0.62589789 </v>
   <v>       0.62026798       0.37770020       0.87528823 </v>
   <v>       0.88594484       0.12707765       0.88233388 </v>
   <v>       0.87359518       0.37462987       0.62528846 </v>
   <v>       0.62648335       0.63172690       0.12633562 </v>
   <v>       0.63313146       0.88109084       0.37184714 </v>
   <v>       0.87730421       0.62545316       0.37816009 </v>
   <v>       0.87278430       0.87411209       0.12119056 </v>
   <v>       0.63369502       0.62246568       0.62111336 </v>
   <v>       0.63336923       0.87141617       0.87747686 </v>
   <v>       0.87746695       0.62691793       0.87870907 </v>
   <v>       0.87475720       0.88022146       0.61651607 </v>
   <v>       0.99489383       0.00666252       0.99533455 </v>
   <v>       0.99941259       0.24364793       0.25661386 </v>
   <v>       0.24751311       0.99948429       0.24910980 </v>
   <v>       0.25426775       0.25155074       0.99783974 </v>
   <v>       0.99598229       0.00381254       0.49540609 </v>
   <v>       0.99707674       0.24733610       0.74616224 </v>
   <v>       0.25568520       0.00020173       0.75658997 </v>
   <v>       0.24659763       0.25127554       0.50468008 </v>
   <v>       0.99332170       0.49452425       0.00203728 </v>
   <v>       0.99435492       0.74974312       0.25146976 </v>
   <v>       0.24797225       0.50561521       0.24821461 </v>
   <v>       0.24750245       0.75169149       0.99670488 </v>
   <v>       0.99573927       0.50272993       0.50011773 </v>
   <v>       0.99122976       0.74900620       0.75078174 </v>
   <v>       0.25096232       0.50543269       0.75103674 </v>
   <v>       0.24538934       0.74807427       0.49740771 </v>
   <v>       0.49307260       0.00013538       0.00253158 </v>
   <v>       0.50399390       0.25426084       0.25036926 </v>
   <v>       0.74005363       0.00020733       0.24229273 </v>
   <v>       0.74564997       0.23958823       0.99851815 </v>
   <v>       0.49708178       0.99927562       0.49878691 </v>
   <v>       0.49578130       0.24313141       0.74536217 </v>
   <v>       0.75222667       0.00562497       0.73866273 </v>
   <v>       0.75086764       0.24682048       0.49838703 </v>
   <v>       0.49875003       0.50011023       0.99719793 </v>
   <v>       0.50163643       0.74549402       0.24843505 </v>
   <v>       0.75027259       0.50619483       0.24898933 </v>
   <v>       0.75692498       0.75084147       0.00096755 </v>
   <v>       0.50527041       0.50169545       0.49907559 </v>
   <v>       0.50581884       0.74577479       0.74699116 </v>
   <v>       0.75855386       0.51225748       0.75140604 </v>
   <v>       0.74662286       0.74936013       0.50258694 </v>
  </varray>
 </structure>
</modeling>
