unknown system                          
           1
     8.743316    0.000000    0.000000
     0.000000    8.743316    0.000000
     0.000000    0.000000    8.743316
   C    Si
    32    32
Direct configuration=     1
   0.13020617  0.12507343  0.12236912
   0.12743351  0.38028258  0.38045705
   0.37175438  0.12611413  0.36852718
   0.37992438  0.37815544  0.12086660
   0.12520821  0.12221081  0.62580316
   0.12028047  0.37441060  0.88169563
   0.38165276  0.12634978  0.87533739
   0.37690690  0.37665310  0.62406790
   0.12003872  0.62860515  0.12925704
   0.12299534  0.87993194  0.37692792
   0.36985452  0.63173362  0.37784393
   0.37581839  0.87559481  0.11445204
   0.12920570  0.62356159  0.61498586
   0.12828579  0.86895471  0.87740356
   0.37061579  0.62660110  0.87536798
   0.37885136  0.87374854  0.62296146
   0.62276151  0.12583067  0.12705659
   0.61717892  0.37567732  0.37317114
   0.87032818  0.11399140  0.38298845
   0.88307306  0.37051556  0.12131536
   0.62990382  0.12777328  0.62589789
   0.62026798  0.37770020  0.87528823
   0.88594484  0.12707765  0.88233388
   0.87359518  0.37462987  0.62528846
   0.62648335  0.63172690  0.12633562
   0.63313146  0.88109084  0.37184714
   0.87730421  0.62545316  0.37816009
   0.87278430  0.87411209  0.12119056
   0.63369502  0.62246568  0.62111336
   0.63336923  0.87141617  0.87747686
   0.87746695  0.62691793  0.87870907
   0.87475720  0.88022146  0.61651607
   0.99489383  0.00666252  0.99533455
   0.99941259  0.24364793  0.25661386
   0.24751311  0.99948429  0.24910980
   0.25426775  0.25155074  0.99783974
   0.99598229  0.00381254  0.49540609
   0.99707674  0.24733610  0.74616224
   0.25568520  0.00020173  0.75658997
   0.24659763  0.25127554  0.50468008
   0.99332170  0.49452425  0.00203728
   0.99435492  0.74974312  0.25146976
   0.24797225  0.50561521  0.24821461
   0.24750245  0.75169149  0.99670488
   0.99573927  0.50272993  0.50011773
   0.99122976  0.74900620  0.75078174
   0.25096232  0.50543269  0.75103674
   0.24538934  0.74807427  0.49740771
   0.49307260  0.00013538  0.00253158
   0.50399390  0.25426084  0.25036926
   0.74005363  0.00020733  0.24229273
   0.74564997  0.23958823  0.99851815
   0.49708178  0.99927562  0.49878691
   0.49578130  0.24313141  0.74536217
   0.75222667  0.00562497  0.73866273
   0.75086764  0.24682048  0.49838703
   0.49875003  0.50011023  0.99719793
   0.50163643  0.74549402  0.24843505
   0.75027259  0.50619483  0.24898933
   0.75692498  0.75084147  0.00096755
   0.50527041  0.50169545  0.49907559
   0.50581884  0.74577479  0.74699116
   0.75855386  0.51225748  0.75140604
   0.74662286  0.74936013  0.50258694
