       N       E                     dE             d eps       ncg     rms          rms(c)
DAV:   1     0.668158576594E+03    0.66816E+03   -0.99544E+04  4704   0.111E+03
DAV:   2    -0.463334501071E+03   -0.11315E+04   -0.10711E+04  5824   0.221E+02
DAV:   3    -0.538394619854E+03   -0.75060E+02   -0.74373E+02  5680   0.560E+01
DAV:   4    -0.540045858357E+03   -0.16512E+01   -0.16441E+01  5688   0.900E+00
DAV:   5    -0.540093249075E+03   -0.47391E-01   -0.47315E-01  5560   0.144E+00    0.491E+01
DAV:   6    -0.483698981166E+03    0.56394E+02   -0.18970E+02  5352   0.234E+01    0.218E+01
DAV:   7    -0.482323716893E+03    0.13753E+01   -0.15417E+01  5960   0.693E+00    0.971E+00
DAV:   8    -0.482097727338E+03    0.22599E+00   -0.98344E-01  5312   0.193E+00    0.252E+00
DAV:   9    -0.482081857189E+03    0.15870E-01   -0.12974E-01  5432   0.765E-01    0.413E-01
DAV:  10    -0.482085593172E+03   -0.37360E-02   -0.11972E-02  5448   0.220E-01    0.204E-01
DAV:  11    -0.482086083767E+03   -0.49059E-03   -0.16278E-03  5160   0.100E-01    0.484E-02
DAV:  12    -0.482086104802E+03   -0.21035E-04   -0.79713E-05  5496   0.197E-02    0.170E-02
DAV:  13    -0.482086110486E+03   -0.56838E-05   -0.33839E-06  5664   0.404E-03    0.353E-03
DAV:  14    -0.482086112148E+03   -0.16623E-05   -0.30099E-07  6128   0.139E-03    0.232E-03
DAV:  15    -0.482086112760E+03   -0.61190E-06   -0.13054E-07  5240   0.874E-04    0.189E-03
DAV:  16    -0.482086112819E+03   -0.59121E-07   -0.12764E-08  3208   0.319E-04    0.150E-03
DAV:  17    -0.482086112394E+03    0.42505E-06   -0.19409E-08  2816   0.289E-04    0.180E-04
DAV:  18    -0.482086112400E+03   -0.62464E-08   -0.24726E-09  2784   0.136E-04
   1 F= -.48208611E+03 E0= -.48208912E+03  d E =0.902897E-02
