<?xml version="1.0" encoding="ISO-8859-1"?>
<modeling>
 <generator>
  <i name="program" type="string">vasp </i>
  <i name="version" type="string">6.2.1  </i>
  <i name="subversion" type="string">16May21 (build Jun 06 2020 10:27:25) complex                          parallel </i>
  <i name="platform" type="string">LinuxIFC </i>
  <i name="date" type="string">2024 01 12 </i>
  <i name="time" type="string">17:44:33 </i>
 </generator>
 <incar>
  <i type="int" name="NELM">    60</i>
  <i type="int" name="IBRION">     1</i>
  <i name="EDIFF">      0.00000001</i>
  <i type="int" name="NSW">     0</i>
  <i type="int" name="ISIF">     3</i>
  <i type="int" name="ISYM">     0</i>
  <i type="logical" name="LWAVE"> F  </i>
  <i type="logical" name="LCHARG"> F  </i>
  <i type="string" name="GGA">PE</i>
 </incar>
 <primitive_cell>
  <structure name="primitive_cell" >
   <crystal>
    <varray name="basis" >
     <v>       8.74331558       0.00000000       0.00000000 </v>
     <v>       0.00000000       8.74331558       0.00000000 </v>
     <v>       0.00000000       0.00000000       8.74331558 </v>
    </varray>
    <i name="volume">    668.38771987 </i>
    <varray name="rec_basis" >
     <v>       0.11437309       0.00000000       0.00000000 </v>
     <v>       0.00000000       0.11437309       0.00000000 </v>
     <v>       0.00000000       0.00000000       0.11437309 </v>
    </varray>
   </crystal>
   <varray name="positions" >
    <v>       0.12500000       0.12500000       0.12500000 </v>
    <v>       0.12500000       0.37500000       0.37500000 </v>
    <v>       0.37500000       0.12500000       0.37500000 </v>
    <v>       0.37500000       0.37500000       0.12500000 </v>
    <v>       0.12500000       0.12500000       0.62500000 </v>
    <v>       0.12500000       0.37500000       0.87500000 </v>
    <v>       0.37500000       0.12500000       0.87500000 </v>
    <v>       0.37500000       0.37500000       0.62500000 </v>
    <v>       0.12500000       0.62500000       0.12500000 </v>
    <v>       0.12500000       0.87500000       0.37500000 </v>
    <v>       0.37500000       0.62500000       0.37500000 </v>
    <v>       0.37500000       0.87500000       0.12500000 </v>
    <v>       0.12500000       0.62500000       0.62500000 </v>
    <v>       0.12500000       0.87500000       0.87500000 </v>
    <v>       0.37500000       0.62500000       0.87500000 </v>
    <v>       0.37500000       0.87500000       0.62500000 </v>
    <v>       0.62500000       0.12500000       0.12500000 </v>
    <v>       0.62500000       0.37500000       0.37500000 </v>
    <v>       0.87500000       0.12500000       0.37500000 </v>
    <v>       0.87500000       0.37500000       0.12500000 </v>
    <v>       0.62500000       0.12500000       0.62500000 </v>
    <v>       0.62500000       0.37500000       0.87500000 </v>
    <v>       0.87500000       0.12500000       0.87500000 </v>
    <v>       0.87500000       0.37500000       0.62500000 </v>
    <v>       0.62500000       0.62500000       0.12500000 </v>
    <v>       0.62500000       0.87500000       0.37500000 </v>
    <v>       0.87500000       0.62500000       0.37500000 </v>
    <v>       0.87500000       0.87500000       0.12500000 </v>
    <v>       0.62500000       0.62500000       0.62500000 </v>
    <v>       0.62500000       0.87500000       0.87500000 </v>
    <v>       0.87500000       0.62500000       0.87500000 </v>
    <v>       0.87500000       0.87500000       0.62500000 </v>
    <v>       0.00000000       0.00000000       0.00000000 </v>
    <v>       0.00000000       0.25000000       0.25000000 </v>
    <v>       0.25000000       0.00000000       0.25000000 </v>
    <v>       0.25000000       0.25000000       0.00000000 </v>
    <v>       0.00000000       0.00000000       0.50000000 </v>
    <v>       0.00000000       0.25000000       0.75000000 </v>
    <v>       0.25000000       0.00000000       0.75000000 </v>
    <v>       0.25000000       0.25000000       0.50000000 </v>
    <v>       0.00000000       0.50000000       0.00000000 </v>
    <v>       0.00000000       0.75000000       0.25000000 </v>
    <v>       0.25000000       0.50000000       0.25000000 </v>
    <v>       0.25000000       0.75000000       0.00000000 </v>
    <v>       0.00000000       0.50000000       0.50000000 </v>
    <v>       0.00000000       0.75000000       0.75000000 </v>
    <v>       0.25000000       0.50000000       0.75000000 </v>
    <v>       0.25000000       0.75000000       0.50000000 </v>
    <v>       0.50000000       0.00000000       0.00000000 </v>
    <v>       0.50000000       0.25000000       0.25000000 </v>
    <v>       0.75000000       0.00000000       0.25000000 </v>
    <v>       0.75000000       0.25000000       0.00000000 </v>
    <v>       0.50000000       0.00000000       0.50000000 </v>
    <v>       0.50000000       0.25000000       0.75000000 </v>
    <v>       0.75000000       0.00000000       0.75000000 </v>
    <v>       0.75000000       0.25000000       0.50000000 </v>
    <v>       0.50000000       0.50000000       0.00000000 </v>
    <v>       0.50000000       0.75000000       0.25000000 </v>
    <v>       0.75000000       0.50000000       0.25000000 </v>
    <v>       0.75000000       0.75000000       0.00000000 </v>
    <v>       0.50000000       0.50000000       0.50000000 </v>
    <v>       0.50000000       0.75000000       0.75000000 </v>
    <v>       0.75000000       0.50000000       0.75000000 </v>
    <v>       0.75000000       0.75000000       0.50000000 </v>
   </varray>
  </structure>
  <varray name="primitive_index" >
   <v type="int" >        1 </v>
   <v type="int" >        2 </v>
   <v type="int" >        3 </v>
   <v type="int" >        4 </v>
   <v type="int" >        5 </v>
   <v type="int" >        6 </v>
   <v type="int" >        7 </v>
   <v type="int" >        8 </v>
   <v type="int" >        9 </v>
   <v type="int" >       10 </v>
   <v type="int" >       11 </v>
   <v type="int" >       12 </v>
   <v type="int" >       13 </v>
   <v type="int" >       14 </v>
   <v type="int" >       15 </v>
   <v type="int" >       16 </v>
   <v type="int" >       17 </v>
   <v type="int" >       18 </v>
   <v type="int" >       19 </v>
   <v type="int" >       20 </v>
   <v type="int" >       21 </v>
   <v type="int" >       22 </v>
   <v type="int" >       23 </v>
   <v type="int" >       24 </v>
   <v type="int" >       25 </v>
   <v type="int" >       26 </v>
   <v type="int" >       27 </v>
   <v type="int" >       28 </v>
   <v type="int" >       29 </v>
   <v type="int" >       30 </v>
   <v type="int" >       31 </v>
   <v type="int" >       32 </v>
   <v type="int" >       33 </v>
   <v type="int" >       34 </v>
   <v type="int" >       35 </v>
   <v type="int" >       36 </v>
   <v type="int" >       37 </v>
   <v type="int" >       38 </v>
   <v type="int" >       39 </v>
   <v type="int" >       40 </v>
   <v type="int" >       41 </v>
   <v type="int" >       42 </v>
   <v type="int" >       43 </v>
   <v type="int" >       44 </v>
   <v type="int" >       45 </v>
   <v type="int" >       46 </v>
   <v type="int" >       47 </v>
   <v type="int" >       48 </v>
   <v type="int" >       49 </v>
   <v type="int" >       50 </v>
   <v type="int" >       51 </v>
   <v type="int" >       52 </v>
   <v type="int" >       53 </v>
   <v type="int" >       54 </v>
   <v type="int" >       55 </v>
   <v type="int" >       56 </v>
   <v type="int" >       57 </v>
   <v type="int" >       58 </v>
   <v type="int" >       59 </v>
   <v type="int" >       60 </v>
   <v type="int" >       61 </v>
   <v type="int" >       62 </v>
   <v type="int" >       63 </v>
   <v type="int" >       64 </v>
  </varray>
 </primitive_cell>
 <kpoints>
  <generation param="Monkhorst-Pack">
   <v type="int" name="divisions">       3        3        3 </v>
   <v name="usershift">      0.00000000       0.00000000       0.00000000 </v>
   <v name="genvec1">      0.33333333       0.00000000       0.00000000 </v>
   <v name="genvec2">      0.00000000       0.33333333       0.00000000 </v>
   <v name="genvec3">      0.00000000       0.00000000       0.33333333 </v>
   <v name="shift">      0.00000000       0.00000000       0.00000000 </v>
  </generation>
  <varray name="kpointlist" >
   <v>       0.00000000       0.00000000       0.00000000 </v>
   <v>       0.33333333       0.00000000       0.00000000 </v>
   <v>       0.00000000       0.33333333       0.00000000 </v>
   <v>       0.00000000       0.00000000       0.33333333 </v>
   <v>       0.33333333       0.33333333       0.00000000 </v>
   <v>       0.00000000       0.33333333       0.33333333 </v>
   <v>       0.33333333       0.00000000       0.33333333 </v>
   <v>      -0.33333333       0.33333333       0.00000000 </v>
   <v>      -0.33333333       0.00000000       0.33333333 </v>
   <v>       0.00000000      -0.33333333       0.33333333 </v>
   <v>       0.33333333       0.33333333       0.33333333 </v>
   <v>      -0.33333333       0.33333333       0.33333333 </v>
   <v>      -0.33333333      -0.33333333       0.33333333 </v>
   <v>       0.33333333      -0.33333333       0.33333333 </v>
  </varray>
  <varray name="weights" >
   <v>       0.03703704 </v>
   <v>       0.07407407 </v>
   <v>       0.07407407 </v>
   <v>       0.07407407 </v>
   <v>       0.07407407 </v>
   <v>       0.07407407 </v>
   <v>       0.07407407 </v>
   <v>       0.07407407 </v>
   <v>       0.07407407 </v>
   <v>       0.07407407 </v>
   <v>       0.07407407 </v>
   <v>       0.07407407 </v>
   <v>       0.07407407 </v>
   <v>       0.07407407 </v>
  </varray>
 </kpoints>
 <parameters>
  <separator name="general" >
   <i type="string" name="SYSTEM">unknown system</i>
   <i type="logical" name="LCOMPAT"> F  </i>
  </separator>
  <separator name="electronic" >
   <i type="string" name="PREC">normal</i>
   <i name="ENMAX">    400.00000000</i>
   <i name="ENAUG">    644.87300000</i>
   <i name="EDIFF">      0.00000001</i>
   <i type="int" name="IALGO">    38</i>
   <i type="int" name="IWAVPR">    10</i>
   <i type="int" name="NBANDS">   168</i>
   <i type="int" name="NBANDSLOW">    -1</i>
   <i type="int" name="NBANDSHIGH">    -1</i>
   <i name="NELECT">    256.00000000</i>
   <i type="int" name="TURBO">     0</i>
   <i type="int" name="IRESTART">     0</i>
   <i type="int" name="NREBOOT">     0</i>
   <i type="int" name="NMIN">     0</i>
   <i name="EREF">      0.00000000</i>
   <separator name="electronic smearing" >
    <i type="int" name="ISMEAR">     1</i>
    <i name="SIGMA">      0.20000000</i>
    <i name="KSPACING">      0.50000000</i>
    <i type="logical" name="KGAMMA"> T  </i>
    <i type="logical" name="KBLOWUP"> T  </i>
   </separator>
   <separator name="electronic projectors" >
    <i type="logical" name="LREAL"> F  </i>
    <v name="ROPT">      0.00000000      0.00000000</v>
    <i type="int" name="LMAXPAW">  -100</i>
    <i type="int" name="LMAXMIX">     2</i>
    <i type="logical" name="NLSPLINE"> F  </i>
   </separator>
   <separator name="electronic startup" >
    <i type="int" name="ISTART">     0</i>
    <i type="int" name="ICHARG">     2</i>
    <i type="int" name="INIWAV">     1</i>
   </separator>
   <separator name="electronic spin" >
    <i type="int" name="ISPIN">     1</i>
    <i type="logical" name="LNONCOLLINEAR"> F  </i>
    <v name="MAGMOM">      1.00000000      1.00000000      1.00000000      1.00000000      1.00000000      1.00000000      1.00000000      1.00000000      1.00000000      1.00000000      1.00000000      1.00000000      1.00000000      1.00000000      1.00000000      1.00000000      1.00000000      1.00000000      1.00000000      1.00000000
      1.00000000      1.00000000      1.00000000      1.00000000      1.00000000      1.00000000      1.00000000      1.00000000      1.00000000      1.00000000      1.00000000      1.00000000      1.00000000      1.00000000      1.00000000      1.00000000      1.00000000      1.00000000      1.00000000      1.00000000
      1.00000000      1.00000000      1.00000000      1.00000000      1.00000000      1.00000000      1.00000000      1.00000000      1.00000000      1.00000000      1.00000000      1.00000000      1.00000000      1.00000000      1.00000000      1.00000000      1.00000000      1.00000000      1.00000000      1.00000000
      1.00000000      1.00000000      1.00000000      1.00000000</v>
    <i name="NUPDOWN">     -1.00000000</i>
    <i type="logical" name="LSORBIT"> F  </i>
    <v name="SAXIS">      0.00000000      0.00000000      1.00000000</v>
    <i type="logical" name="LSPIRAL"> F  </i>
    <v name="QSPIRAL">      0.00000000      0.00000000      0.00000000</v>
    <i type="logical" name="LZEROZ"> F  </i>
   </separator>
   <separator name="electronic exchange-correlation" >
    <i type="logical" name="LASPH"> F  </i>
    <i type="logical" name="LMETAGGA"> F  </i>
   </separator>
   <separator name="electronic convergence" >
    <i type="int" name="NELM">    60</i>
    <i type="int" name="NELMDL">    -5</i>
    <i type="int" name="NELMIN">     2</i>
    <i name="ENINI">    400.00000000</i>
    <separator name="electronic convergence detail" >
     <i type="logical" name="LDIAG"> T  </i>
     <i type="logical" name="LSUBROT"> F  </i>
     <i name="WEIMIN">      0.00000000</i>
     <i name="EBREAK">      0.00000000</i>
     <i name="DEPER">      0.30000000</i>
     <i type="int" name="NRMM">     4</i>
     <i name="TIME">      0.40000000</i>
    </separator>
   </separator>
   <separator name="electronic mixer" >
    <i name="AMIX">      0.40000000</i>
    <i name="BMIX">      1.00000000</i>
    <i name="AMIN">      0.10000000</i>
    <i name="AMIX_MAG">      1.60000000</i>
    <i name="BMIX_MAG">      1.00000000</i>
    <separator name="electronic mixer details" >
     <i type="int" name="IMIX">     4</i>
     <i type="logical" name="MIXFIRST"> F  </i>
     <i type="int" name="MAXMIX">   -45</i>
     <i name="WC">    100.00000000</i>
     <i type="int" name="INIMIX">     1</i>
     <i type="int" name="MIXPRE">     1</i>
     <i type="int" name="MREMOVE">     5</i>
    </separator>
   </separator>
   <separator name="electronic dipolcorrection" >
    <i type="logical" name="LDIPOL"> F  </i>
    <i type="logical" name="LMONO"> F  </i>
    <i type="int" name="IDIPOL">     0</i>
    <i name="EPSILON">      1.00000000</i>
    <v name="DIPOL">   -100.00000000   -100.00000000   -100.00000000</v>
    <i name="EFIELD">      0.00000000</i>
   </separator>
  </separator>
  <separator name="grids" >
   <i type="int" name="NGX">    48</i>
   <i type="int" name="NGY">    48</i>
   <i type="int" name="NGZ">    48</i>
   <i type="int" name="NGXF">    96</i>
   <i type="int" name="NGYF">    96</i>
   <i type="int" name="NGZF">    96</i>
   <i type="logical" name="ADDGRID"> F  </i>
  </separator>
  <separator name="ionic" >
   <i type="int" name="NSW">     0</i>
   <i type="int" name="IBRION">    -1</i>
   <i type="int" name="MDALGO">     0</i>
   <i type="int" name="ISIF">     3</i>
   <i name="PSTRESS">      0.00000000</i>
   <i name="EDIFFG">      0.00000010</i>
   <i type="int" name="NFREE">     0</i>
   <i name="POTIM">      0.50000000</i>
   <i name="SMASS">     -3.00000000</i>
   <i name="SCALEE">      1.00000000</i>
  </separator>
  <separator name="ionic md" >
   <i name="TEBEG">      0.00010000</i>
   <i name="TEEND">      0.00010000</i>
   <i type="int" name="NBLOCK">     1</i>
   <i type="int" name="KBLOCK">     1</i>
   <i type="int" name="NPACO">   256</i>
   <i name="APACO">     16.00000000</i>
  </separator>
  <separator name="symmetry" >
   <i type="int" name="ISYM">     0</i>
   <i name="SYMPREC">      0.00001000</i>
  </separator>
  <separator name="dos" >
   <i type="int" name="LORBIT">     0</i>
   <v name="RWIGS">     -1.00000000     -1.00000000</v>
   <i type="int" name="NEDOS">   301</i>
   <i name="EMIN">     10.00000000</i>
   <i name="EMAX">    -10.00000000</i>
   <i name="EFERMI">      0.00000000</i>
  </separator>
  <separator name="writing" >
   <i type="int" name="NWRITE">     2</i>
   <i type="logical" name="LWAVE"> F  </i>
   <i type="logical" name="LDOWNSAMPLE"> F  </i>
   <i type="logical" name="LCHARG"> F  </i>
   <i type="logical" name="LPARD"> F  </i>
   <i type="logical" name="LVTOT"> F  </i>
   <i type="logical" name="LVHAR"> F  </i>
   <i type="logical" name="LELF"> F  </i>
   <i type="logical" name="LOPTICS"> F  </i>
   <v name="STM">      0.00000000      0.00000000      0.00000000      0.00000000      0.00000000      0.00000000      0.00000000</v>
  </separator>
  <separator name="performance" >
   <i type="int" name="NPAR">     8</i>
   <i type="int" name="NSIM">     4</i>
   <i type="int" name="NBLK">    -1</i>
   <i type="logical" name="LPLANE"> T  </i>
   <i type="logical" name="LSCALAPACK"> T  </i>
   <i type="logical" name="LSCAAWARE"> F  </i>
   <i type="logical" name="LSCALU"> F  </i>
   <i type="logical" name="LASYNC"> F  </i>
   <i type="logical" name="LORBITALREAL"> F  </i>
  </separator>
  <separator name="miscellaneous" >
   <i type="int" name="IDIOT">     3</i>
   <i type="int" name="PHON_NSTRUCT">    -1</i>
   <i type="logical" name="LMUSIC"> F  </i>
   <v name="POMASS">     12.01100000     28.08500000</v>
   <v name="DARWINR">      0.00000000      0.00000000</v>
   <v name="DARWINV">      1.00000000      1.00000000</v>
   <i type="logical" name="LCORR"> T  </i>
  </separator>
  <i type="logical" name="GGA_COMPAT"> T  </i>
  <i type="logical" name="LBERRY"> F  </i>
  <i type="int" name="ICORELEVEL">     0</i>
  <i type="logical" name="LDAU"> F  </i>
  <i type="int" name="I_CONSTRAINED_M">     0</i>
  <separator name="electronic exchange-correlation" >
   <i type="string" name="GGA">PE</i>
   <i type="int" name="VOSKOWN">     0</i>
   <i type="logical" name="LHFCALC"> F  </i>
   <i type="string" name="PRECFOCK"></i>
   <i type="logical" name="LSYMGRAD"> F  </i>
   <i type="logical" name="LHFONE"> F  </i>
   <i type="logical" name="LRHFCALC"> F  </i>
   <i type="logical" name="LTHOMAS"> F  </i>
   <i type="logical" name="LMODELHF"> F  </i>
   <i type="logical" name="LFOCKACE"> F  </i>
   <i name="ENCUT4O">     -1.00000000</i>
   <i type="int" name="EXXOEP">     0</i>
   <i type="int" name="FOURORBIT">     0</i>
   <i name="AEXX">      0.00000000</i>
   <i name="HFALPHA">      0.00000000</i>
   <i name="MCALPHA">      0.00000000</i>
   <i name="ALDAX">      1.00000000</i>
   <i name="AGGAX">      1.00000000</i>
   <i name="ALDAC">      1.00000000</i>
   <i name="AGGAC">      1.00000000</i>
   <i type="int" name="NKREDX">     1</i>
   <i type="int" name="NKREDY">     1</i>
   <i type="int" name="NKREDZ">     1</i>
   <i type="logical" name="SHIFTRED"> F  </i>
   <i type="logical" name="ODDONLY"> F  </i>
   <i type="logical" name="EVENONLY"> F  </i>
   <i type="int" name="LMAXFOCK">     0</i>
   <i type="int" name="NMAXFOCKAE">     0</i>
   <i type="logical" name="LFOCKAEDFT"> F  </i>
   <i name="HFSCREEN">      0.00000000</i>
   <i name="HFSCREENC">      0.00000000</i>
   <i type="int" name="NBANDSGWLOW">     0</i>
  </separator>
  <separator name="vdW DFT" >
   <i type="logical" name="LUSE_VDW"> F  </i>
   <i name="Zab_VDW">     -0.84910000</i>
   <i name="PARAM1">      0.12340000</i>
   <i name="PARAM2">      1.00000000</i>
   <i name="PARAM3">      0.00000000</i>
  </separator>
  <separator name="model GW" >
   <i type="int" name="MODEL_GW">     0</i>
   <i name="MODEL_EPS0">      6.26613487</i>
   <i name="MODEL_ALPHA">      1.00000000</i>
  </separator>
  <separator name="linear response parameters" >
   <i type="logical" name="LEPSILON"> F  </i>
   <i type="logical" name="LRPA"> F  </i>
   <i type="logical" name="LNABLA"> F  </i>
   <i type="logical" name="LVEL"> F  </i>
   <i type="int" name="KINTER">     0</i>
   <i name="CSHIFT">      0.10000000</i>
   <i name="OMEGAMAX">     -1.00000000</i>
   <i name="DEG_THRESHOLD">      0.00200000</i>
   <i name="RTIME">     -0.10000000</i>
   <i name="WPLASMAI">      0.00000000</i>
   <v name="DFIELD">      0.00000000      0.00000000      0.00000000</v>
   <v name="WPLASMA">      0.00000000      0.00000000      0.00000000      0.00000000      0.00000000      0.00000000      0.00000000      0.00000000      0.00000000</v>
  </separator>
  <separator name="orbital magnetization" >
   <i type="logical" name="NUCIND"> F  </i>
   <v name="MAGPOS">      0.00000000      0.00000000      0.00000000</v>
   <i type="logical" name="LNICSALL"> T  </i>
   <i type="logical" name="ORBITALMAG"> F  </i>
   <i type="logical" name="LMAGBLOCH"> F  </i>
   <i type="logical" name="LCHIMAG"> F  </i>
   <i type="logical" name="LGAUGE"> T  </i>
   <i type="int" name="MAGATOM">     0</i>
   <v name="MAGDIPOL">      0.00000000      0.00000000      0.00000000</v>
   <v name="AVECCONST">      0.00000000      0.00000000      0.00000000</v>
  </separator>
  <separator name="response functions" >
   <i type="logical" name="LFINITE_TEMPERATURE"> F  </i>
   <i type="logical" name="LADDER"> F  </i>
   <i type="logical" name="LRPAFORCE"> F  </i>
   <i type="logical" name="LFXC"> F  </i>
   <i type="logical" name="LHARTREE"> T  </i>
   <i type="int" name="IBSE">     0</i>
   <v type="int" name="KPOINT">    -1     0     0     0</v>
   <i type="logical" name="LTCTC"> F  </i>
   <i type="logical" name="LTCTE"> F  </i>
   <i type="logical" name="LTETE"> F  </i>
   <i type="logical" name="LTRIPLET"> F  </i>
   <i type="logical" name="LFXCEPS"> F  </i>
   <i type="logical" name="LFXHEG"> F  </i>
   <i type="int" name="NATURALO">     2</i>
   <i type="logical" name="LHOLEGF"> F  </i>
   <i type="logical" name="L2ORDER"> F  </i>
   <i type="logical" name="LDMP1"> F  </i>
   <i type="logical" name="LMP2LT"> F  </i>
   <i type="logical" name="LSMP2LT"> F  </i>
   <i type="logical" name="LGWLF"> F  </i>
   <i name="ENCUTGW">     -2.00000000</i>
   <i name="ENCUTGWSOFT">     -2.00000000</i>
   <i name="ENCUTLF">     -1.00000000</i>
   <i type="logical" name="LESF_SPLINES"> F  </i>
   <i type="int" name="LMAXMP2">    -1</i>
   <i name="SCISSOR">      0.00000000</i>
   <i type="int" name="NOMEGA">     0</i>
   <i type="int" name="NOMEGAR">     0</i>
   <i type="int" name="NBANDSGW">    -1</i>
   <i type="int" name="NBANDSO">    -1</i>
   <i type="int" name="NBANDSV">    -1</i>
   <i type="int" name="NELM">    60</i>
   <i type="int" name="NELMHF">     1</i>
   <i type="int" name="DIM">     3</i>
   <i type="int" name="IESPILON">     4</i>
   <i type="int" name="ANTIRES">     0</i>
   <i name="OMEGAMAX">    -30.00000000</i>
   <i name="OMEGAMIN">    -30.00000000</i>
   <i name="OMEGATL">   -200.00000000</i>
   <i type="int" name="OMEGAGRID">     0</i>
   <i name="CSHIFT">     -0.10000000</i>
   <i type="logical" name="LSELFENERGY"> F  </i>
   <i type="logical" name="LSPECTRAL"> F  </i>
   <i type="logical" name="LSPECTRALGW"> F  </i>
   <i type="logical" name="LSINGLES"> F  </i>
   <i type="logical" name="LFERMIGW"> F  </i>
   <i type="logical" name="ODDONLYGW"> F  </i>
   <i type="logical" name="EVENONLYGW"> F  </i>
   <i type="int" name="NKREDLFX">     1</i>
   <i type="int" name="NKREDLFY">     1</i>
   <i type="int" name="NKREDLFZ">     1</i>
   <i type="int" name="MAXMEM">  2800</i>
   <i type="int" name="TELESCOPE">     0</i>
   <i type="int" name="NTAUPAR">    -1</i>
   <i type="int" name="NOMEGAPAR">    -1</i>
   <i name="DAMP_NEWTON">      0.80000001</i>
   <i name="LAMBDA">      1.00000000</i>
  </separator>
  <separator name="External order field" >
   <i name="OFIELD_KAPPA">      0.00000000</i>
   <v name="OFIELD_K">      0.00000000      0.00000000      0.00000000</v>
   <i name="OFIELD_Q6_NEAR">      0.00000000</i>
   <i name="OFIELD_Q6_FAR">      0.00000000</i>
   <i name="OFIELD_A">      0.00000000</i>
  </separator>
 </parameters>
 <atominfo>
  <atoms>      64 </atoms>
  <types>       2 </types>
  <array name="atoms" >
   <dimension dim="1">ion</dimension>
   <field type="string">element</field>
   <field type="int">atomtype</field>
   <set>
    <rc><c>C </c><c>   1</c></rc>
    <rc><c>C </c><c>   1</c></rc>
    <rc><c>C </c><c>   1</c></rc>
    <rc><c>C </c><c>   1</c></rc>
    <rc><c>C </c><c>   1</c></rc>
    <rc><c>C </c><c>   1</c></rc>
    <rc><c>C </c><c>   1</c></rc>
    <rc><c>C </c><c>   1</c></rc>
    <rc><c>C </c><c>   1</c></rc>
    <rc><c>C </c><c>   1</c></rc>
    <rc><c>C </c><c>   1</c></rc>
    <rc><c>C </c><c>   1</c></rc>
    <rc><c>C </c><c>   1</c></rc>
    <rc><c>C </c><c>   1</c></rc>
    <rc><c>C </c><c>   1</c></rc>
    <rc><c>C </c><c>   1</c></rc>
    <rc><c>C </c><c>   1</c></rc>
    <rc><c>C </c><c>   1</c></rc>
    <rc><c>C </c><c>   1</c></rc>
    <rc><c>C </c><c>   1</c></rc>
    <rc><c>C </c><c>   1</c></rc>
    <rc><c>C </c><c>   1</c></rc>
    <rc><c>C </c><c>   1</c></rc>
    <rc><c>C </c><c>   1</c></rc>
    <rc><c>C </c><c>   1</c></rc>
    <rc><c>C </c><c>   1</c></rc>
    <rc><c>C </c><c>   1</c></rc>
    <rc><c>C </c><c>   1</c></rc>
    <rc><c>C </c><c>   1</c></rc>
    <rc><c>C </c><c>   1</c></rc>
    <rc><c>C </c><c>   1</c></rc>
    <rc><c>C </c><c>   1</c></rc>
    <rc><c>Si</c><c>   2</c></rc>
    <rc><c>Si</c><c>   2</c></rc>
    <rc><c>Si</c><c>   2</c></rc>
    <rc><c>Si</c><c>   2</c></rc>
    <rc><c>Si</c><c>   2</c></rc>
    <rc><c>Si</c><c>   2</c></rc>
    <rc><c>Si</c><c>   2</c></rc>
    <rc><c>Si</c><c>   2</c></rc>
    <rc><c>Si</c><c>   2</c></rc>
    <rc><c>Si</c><c>   2</c></rc>
    <rc><c>Si</c><c>   2</c></rc>
    <rc><c>Si</c><c>   2</c></rc>
    <rc><c>Si</c><c>   2</c></rc>
    <rc><c>Si</c><c>   2</c></rc>
    <rc><c>Si</c><c>   2</c></rc>
    <rc><c>Si</c><c>   2</c></rc>
    <rc><c>Si</c><c>   2</c></rc>
    <rc><c>Si</c><c>   2</c></rc>
    <rc><c>Si</c><c>   2</c></rc>
    <rc><c>Si</c><c>   2</c></rc>
    <rc><c>Si</c><c>   2</c></rc>
    <rc><c>Si</c><c>   2</c></rc>
    <rc><c>Si</c><c>   2</c></rc>
    <rc><c>Si</c><c>   2</c></rc>
    <rc><c>Si</c><c>   2</c></rc>
    <rc><c>Si</c><c>   2</c></rc>
    <rc><c>Si</c><c>   2</c></rc>
    <rc><c>Si</c><c>   2</c></rc>
    <rc><c>Si</c><c>   2</c></rc>
    <rc><c>Si</c><c>   2</c></rc>
    <rc><c>Si</c><c>   2</c></rc>
    <rc><c>Si</c><c>   2</c></rc>
   </set>
  </array>
  <array name="atomtypes" >
   <dimension dim="1">type</dimension>
   <field type="int">atomspertype</field>
   <field type="string">element</field>
   <field>mass</field>
   <field>valence</field>
   <field type="string">pseudopotential</field>
   <set>
    <rc><c>  32</c><c>C </c><c>     12.01100000</c><c>      4.00000000</c><c>  PAW_PBE C 08Apr2002                   </c></rc>
    <rc><c>  32</c><c>Si</c><c>     28.08500000</c><c>      4.00000000</c><c>  PAW_PBE Si 05Jan2001                  </c></rc>
   </set>
  </array>
 </atominfo>
 <structure name="initialpos" >
  <crystal>
   <varray name="basis" >
    <v>       8.74331558       0.00000000       0.00000000 </v>
    <v>       0.00000000       8.74331558       0.00000000 </v>
    <v>       0.00000000       0.00000000       8.74331558 </v>
   </varray>
   <i name="volume">    668.38771987 </i>
   <varray name="rec_basis" >
    <v>       0.11437309       0.00000000       0.00000000 </v>
    <v>       0.00000000       0.11437309       0.00000000 </v>
    <v>       0.00000000       0.00000000       0.11437309 </v>
   </varray>
  </crystal>
  <varray name="positions" >
   <v>       0.12500000       0.12500000       0.12500000 </v>
   <v>       0.12500000       0.37500000       0.37500000 </v>
   <v>       0.37500000       0.12500000       0.37500000 </v>
   <v>       0.37500000       0.37500000       0.12500000 </v>
   <v>       0.12500000       0.12500000       0.62500000 </v>
   <v>       0.12500000       0.37500000       0.87500000 </v>
   <v>       0.37500000       0.12500000       0.87500000 </v>
   <v>       0.37500000       0.37500000       0.62500000 </v>
   <v>       0.12500000       0.62500000       0.12500000 </v>
   <v>       0.12500000       0.87500000       0.37500000 </v>
   <v>       0.37500000       0.62500000       0.37500000 </v>
   <v>       0.37500000       0.87500000       0.12500000 </v>
   <v>       0.12500000       0.62500000       0.62500000 </v>
   <v>       0.12500000       0.87500000       0.87500000 </v>
   <v>       0.37500000       0.62500000       0.87500000 </v>
   <v>       0.37500000       0.87500000       0.62500000 </v>
   <v>       0.62500000       0.12500000       0.12500000 </v>
   <v>       0.62500000       0.37500000       0.37500000 </v>
   <v>       0.87500000       0.12500000       0.37500000 </v>
   <v>       0.87500000       0.37500000       0.12500000 </v>
   <v>       0.62500000       0.12500000       0.62500000 </v>
   <v>       0.62500000       0.37500000       0.87500000 </v>
   <v>       0.87500000       0.12500000       0.87500000 </v>
   <v>       0.87500000       0.37500000       0.62500000 </v>
   <v>       0.62500000       0.62500000       0.12500000 </v>
   <v>       0.62500000       0.87500000       0.37500000 </v>
   <v>       0.87500000       0.62500000       0.37500000 </v>
   <v>       0.87500000       0.87500000       0.12500000 </v>
   <v>       0.62500000       0.62500000       0.62500000 </v>
   <v>       0.62500000       0.87500000       0.87500000 </v>
   <v>       0.87500000       0.62500000       0.87500000 </v>
   <v>       0.87500000       0.87500000       0.62500000 </v>
   <v>       0.00000000       0.00000000       0.00000000 </v>
   <v>       0.00000000       0.25000000       0.25000000 </v>
   <v>       0.25000000       0.00000000       0.25000000 </v>
   <v>       0.25000000       0.25000000       0.00000000 </v>
   <v>       0.00000000       0.00000000       0.50000000 </v>
   <v>       0.00000000       0.25000000       0.75000000 </v>
   <v>       0.25000000       0.00000000       0.75000000 </v>
   <v>       0.25000000       0.25000000       0.50000000 </v>
   <v>       0.00000000       0.50000000       0.00000000 </v>
   <v>       0.00000000       0.75000000       0.25000000 </v>
   <v>       0.25000000       0.50000000       0.25000000 </v>
   <v>       0.25000000       0.75000000       0.00000000 </v>
   <v>       0.00000000       0.50000000       0.50000000 </v>
   <v>       0.00000000       0.75000000       0.75000000 </v>
   <v>       0.25000000       0.50000000       0.75000000 </v>
   <v>       0.25000000       0.75000000       0.50000000 </v>
   <v>       0.50000000       0.00000000       0.00000000 </v>
   <v>       0.50000000       0.25000000       0.25000000 </v>
   <v>       0.75000000       0.00000000       0.25000000 </v>
   <v>       0.75000000       0.25000000       0.00000000 </v>
   <v>       0.50000000       0.00000000       0.50000000 </v>
   <v>       0.50000000       0.25000000       0.75000000 </v>
   <v>       0.75000000       0.00000000       0.75000000 </v>
   <v>       0.75000000       0.25000000       0.50000000 </v>
   <v>       0.50000000       0.50000000       0.00000000 </v>
   <v>       0.50000000       0.75000000       0.25000000 </v>
   <v>       0.75000000       0.50000000       0.25000000 </v>
   <v>       0.75000000       0.75000000       0.00000000 </v>
   <v>       0.50000000       0.50000000       0.50000000 </v>
   <v>       0.50000000       0.75000000       0.75000000 </v>
   <v>       0.75000000       0.50000000       0.75000000 </v>
   <v>       0.75000000       0.75000000       0.50000000 </v>
  </varray>
 </structure>
 <calculation>
  <scstep>
   <time name="dav">   17.64   17.73</time>
   <time name="total">   17.71   17.80</time>
   <energy>
    <i name="alphaZ">    354.85177120 </i>
    <i name="ewald">  -9084.70117892 </i>
    <i name="hartreedc">   -670.19729988 </i>
    <i name="XCdc">    145.81931225 </i>
    <i name="pawpsdc">   6292.66707184 </i>
    <i name="pawaedc">  -5747.90303932 </i>
    <i name="eentropy">      0.00923824 </i>
    <i name="bandstr">   1371.43765799 </i>
    <i name="atom">   8006.17504320 </i>
    <i name="e_fr_energy">    668.15857659 </i>
    <i name="e_wo_entrp">    668.14933835 </i>
    <i name="e_0_energy">    668.15549718 </i>
   </energy>
  </scstep>
  <scstep>
   <time name="dav">   16.46   16.54</time>
   <time name="total">   16.46   16.54</time>
   <energy>
    <i name="e_fr_energy">   -463.33450107 </i>
    <i name="e_wo_entrp">   -463.35005506 </i>
    <i name="e_0_energy">   -463.33968574 </i>
   </energy>
  </scstep>
  <scstep>
   <time name="dav">   15.50   15.53</time>
   <time name="total">   15.50   15.54</time>
   <energy>
    <i name="e_fr_energy">   -538.39461985 </i>
    <i name="e_wo_entrp">   -538.41330399 </i>
    <i name="e_0_energy">   -538.40084790 </i>
   </energy>
  </scstep>
  <scstep>
   <time name="dav">   15.59   15.62</time>
   <time name="total">   15.59   15.62</time>
   <energy>
    <i name="e_fr_energy">   -540.04585836 </i>
    <i name="e_wo_entrp">   -540.06509019 </i>
    <i name="e_0_energy">   -540.05226897 </i>
   </energy>
  </scstep>
  <scstep>
   <time name="dav">   15.24   15.27</time>
   <time name="total">   15.48   15.52</time>
   <energy>
    <i name="e_fr_energy">   -540.09324908 </i>
    <i name="e_wo_entrp">   -540.11248076 </i>
    <i name="e_0_energy">   -540.09965964 </i>
   </energy>
  </scstep>
  <scstep>
   <time name="dav">   16.58   16.68</time>
   <time name="total">   17.52   17.68</time>
   <energy>
    <i name="e_fr_energy">   -483.69898117 </i>
    <i name="e_wo_entrp">   -483.70883586 </i>
    <i name="e_0_energy">   -483.70226607 </i>
   </energy>
  </scstep>
  <scstep>
   <time name="dav">   17.88   18.02</time>
   <time name="total">   18.54   18.68</time>
   <energy>
    <i name="e_fr_energy">   -482.32371689 </i>
    <i name="e_wo_entrp">   -482.33265166 </i>
    <i name="e_0_energy">   -482.32669515 </i>
   </energy>
  </scstep>
  <scstep>
   <time name="dav">   14.97   15.07</time>
   <time name="total">   15.25   15.35</time>
   <energy>
    <i name="e_fr_energy">   -482.09772734 </i>
    <i name="e_wo_entrp">   -482.10686322 </i>
    <i name="e_0_energy">   -482.10077263 </i>
   </energy>
  </scstep>
  <scstep>
   <time name="dav">   15.26   15.36</time>
   <time name="total">   15.59   15.69</time>
   <energy>
    <i name="e_fr_energy">   -482.08185719 </i>
    <i name="e_wo_entrp">   -482.09089435 </i>
    <i name="e_0_energy">   -482.08486957 </i>
   </energy>
  </scstep>
  <scstep>
   <time name="dav">   17.53   17.63</time>
   <time name="total">   18.15   18.29</time>
   <energy>
    <i name="e_fr_energy">   -482.08559317 </i>
    <i name="e_wo_entrp">   -482.09461537 </i>
    <i name="e_0_energy">   -482.08860057 </i>
   </energy>
  </scstep>
  <scstep>
   <time name="dav">   14.62   14.65</time>
   <time name="total">   14.95   14.98</time>
   <energy>
    <i name="e_fr_energy">   -482.08608377 </i>
    <i name="e_wo_entrp">   -482.09511273 </i>
    <i name="e_0_energy">   -482.08909342 </i>
   </energy>
  </scstep>
  <scstep>
   <time name="dav">   15.34   15.38</time>
   <time name="total">   15.67   15.71</time>
   <energy>
    <i name="e_fr_energy">   -482.08610480 </i>
    <i name="e_wo_entrp">   -482.09513400 </i>
    <i name="e_0_energy">   -482.08911453 </i>
   </energy>
  </scstep>
  <scstep>
   <time name="dav">   15.63   15.67</time>
   <time name="total">   15.96   16.00</time>
   <energy>
    <i name="e_fr_energy">   -482.08611049 </i>
    <i name="e_wo_entrp">   -482.09513961 </i>
    <i name="e_0_energy">   -482.08912019 </i>
   </energy>
  </scstep>
  <scstep>
   <time name="dav">   16.60   16.64</time>
   <time name="total">   17.08   17.16</time>
   <energy>
    <i name="e_fr_energy">   -482.08611215 </i>
    <i name="e_wo_entrp">   -482.09514121 </i>
    <i name="e_0_energy">   -482.08912183 </i>
   </energy>
  </scstep>
  <scstep>
   <time name="dav">   14.63   14.66</time>
   <time name="total">   14.97   15.01</time>
   <energy>
    <i name="e_fr_energy">   -482.08611276 </i>
    <i name="e_wo_entrp">   -482.09514176 </i>
    <i name="e_0_energy">   -482.08912243 </i>
   </energy>
  </scstep>
  <scstep>
   <time name="dav">   10.34   10.36</time>
   <time name="total">   10.68   10.71</time>
   <energy>
    <i name="e_fr_energy">   -482.08611282 </i>
    <i name="e_wo_entrp">   -482.09514180 </i>
    <i name="e_0_energy">   -482.08912248 </i>
   </energy>
  </scstep>
  <scstep>
   <time name="dav">    9.50    9.52</time>
   <time name="total">    9.84    9.86</time>
   <energy>
    <i name="e_fr_energy">   -482.08611239 </i>
    <i name="e_wo_entrp">   -482.09514137 </i>
    <i name="e_0_energy">   -482.08912205 </i>
   </energy>
  </scstep>
  <scstep>
   <time name="dav">    9.42    9.45</time>
   <time name="total">    9.48    9.50</time>
   <energy>
    <i name="alphaZ">    354.85177120 </i>
    <i name="ewald">  -9084.70117892 </i>
    <i name="hartreedc">  -1022.64181578 </i>
    <i name="XCdc">    179.26025581 </i>
    <i name="pawpsdc">  32972.56514898 </i>
    <i name="pawaedc"> -32433.47715746 </i>
    <i name="eentropy">      0.00902897 </i>
    <i name="bandstr">    545.87279161 </i>
    <i name="atom">   8006.17504320 </i>
    <i name="e_fr_energy">   -482.08611240 </i>
    <i name="e_wo_entrp">   -482.09514137 </i>
    <i name="e_0_energy">   -482.08912206 </i>
   </energy>
  </scstep>
  <structure>
   <crystal>
    <varray name="basis" >
     <v>       8.74331558       0.00000000       0.00000000 </v>
     <v>       0.00000000       8.74331558       0.00000000 </v>
     <v>       0.00000000       0.00000000       8.74331558 </v>
    </varray>
    <i name="volume">    668.38771987 </i>
    <varray name="rec_basis" >
     <v>       0.11437309       0.00000000       0.00000000 </v>
     <v>       0.00000000       0.11437309       0.00000000 </v>
     <v>       0.00000000       0.00000000       0.11437309 </v>
    </varray>
   </crystal>
   <varray name="positions" >
    <v>       0.12500000       0.12500000       0.12500000 </v>
    <v>       0.12500000       0.37500000       0.37500000 </v>
    <v>       0.37500000       0.12500000       0.37500000 </v>
    <v>       0.37500000       0.37500000       0.12500000 </v>
    <v>       0.12500000       0.12500000       0.62500000 </v>
    <v>       0.12500000       0.37500000       0.87500000 </v>
    <v>       0.37500000       0.12500000       0.87500000 </v>
    <v>       0.37500000       0.37500000       0.62500000 </v>
    <v>       0.12500000       0.62500000       0.12500000 </v>
    <v>       0.12500000       0.87500000       0.37500000 </v>
    <v>       0.37500000       0.62500000       0.37500000 </v>
    <v>       0.37500000       0.87500000       0.12500000 </v>
    <v>       0.12500000       0.62500000       0.62500000 </v>
    <v>       0.12500000       0.87500000       0.87500000 </v>
    <v>       0.37500000       0.62500000       0.87500000 </v>
    <v>       0.37500000       0.87500000       0.62500000 </v>
    <v>       0.62500000       0.12500000       0.12500000 </v>
    <v>       0.62500000       0.37500000       0.37500000 </v>
    <v>       0.87500000       0.12500000       0.37500000 </v>
    <v>       0.87500000       0.37500000       0.12500000 </v>
    <v>       0.62500000       0.12500000       0.62500000 </v>
    <v>       0.62500000       0.37500000       0.87500000 </v>
    <v>       0.87500000       0.12500000       0.87500000 </v>
    <v>       0.87500000       0.37500000       0.62500000 </v>
    <v>       0.62500000       0.62500000       0.12500000 </v>
    <v>       0.62500000       0.87500000       0.37500000 </v>
    <v>       0.87500000       0.62500000       0.37500000 </v>
    <v>       0.87500000       0.87500000       0.12500000 </v>
    <v>       0.62500000       0.62500000       0.62500000 </v>
    <v>       0.62500000       0.87500000       0.87500000 </v>
    <v>       0.87500000       0.62500000       0.87500000 </v>
    <v>       0.87500000       0.87500000       0.62500000 </v>
    <v>       0.00000000       0.00000000       0.00000000 </v>
    <v>       0.00000000       0.25000000       0.25000000 </v>
    <v>       0.25000000       0.00000000       0.25000000 </v>
    <v>       0.25000000       0.25000000       0.00000000 </v>
    <v>       0.00000000       0.00000000       0.50000000 </v>
    <v>       0.00000000       0.25000000       0.75000000 </v>
    <v>       0.25000000       0.00000000       0.75000000 </v>
    <v>       0.25000000       0.25000000       0.50000000 </v>
    <v>       0.00000000       0.50000000       0.00000000 </v>
    <v>       0.00000000       0.75000000       0.25000000 </v>
    <v>       0.25000000       0.50000000       0.25000000 </v>
    <v>       0.25000000       0.75000000       0.00000000 </v>
    <v>       0.00000000       0.50000000       0.50000000 </v>
    <v>       0.00000000       0.75000000       0.75000000 </v>
    <v>       0.25000000       0.50000000       0.75000000 </v>
    <v>       0.25000000       0.75000000       0.50000000 </v>
    <v>       0.50000000       0.00000000       0.00000000 </v>
    <v>       0.50000000       0.25000000       0.25000000 </v>
    <v>       0.75000000       0.00000000       0.25000000 </v>
    <v>       0.75000000       0.25000000       0.00000000 </v>
    <v>       0.50000000       0.00000000       0.50000000 </v>
    <v>       0.50000000       0.25000000       0.75000000 </v>
    <v>       0.75000000       0.00000000       0.75000000 </v>
    <v>       0.75000000       0.25000000       0.50000000 </v>
    <v>       0.50000000       0.50000000       0.00000000 </v>
    <v>       0.50000000       0.75000000       0.25000000 </v>
    <v>       0.75000000       0.50000000       0.25000000 </v>
    <v>       0.75000000       0.75000000       0.00000000 </v>
    <v>       0.50000000       0.50000000       0.50000000 </v>
    <v>       0.50000000       0.75000000       0.75000000 </v>
    <v>       0.75000000       0.50000000       0.75000000 </v>
    <v>       0.75000000       0.75000000       0.50000000 </v>
   </varray>
  </structure>
  <varray name="forces" >
   <v>      -0.00000027      -0.00000025       0.00000025 </v>
   <v>      -0.00000002       0.00000040      -0.00000042 </v>
   <v>       0.00000014       0.00000032      -0.00000038 </v>
   <v>       0.00000002       0.00000038       0.00000066 </v>
   <v>      -0.00000051       0.00000025       0.00000025 </v>
   <v>      -0.00000049       0.00000010      -0.00000039 </v>
   <v>       0.00000013      -0.00000055       0.00000037 </v>
   <v>      -0.00000008       0.00000043      -0.00000019 </v>
   <v>       0.00000019      -0.00000001       0.00000012 </v>
   <v>      -0.00000021      -0.00000025       0.00000030 </v>
   <v>       0.00000018      -0.00000007      -0.00000029 </v>
   <v>       0.00000014      -0.00000026      -0.00000013 </v>
   <v>      -0.00000026      -0.00000017      -0.00000027 </v>
   <v>      -0.00000005      -0.00000029       0.00000057 </v>
   <v>      -0.00000008       0.00000014       0.00000015 </v>
   <v>      -0.00000011      -0.00000035      -0.00000012 </v>
   <v>       0.00000013       0.00000022       0.00000003 </v>
   <v>      -0.00000005       0.00000003      -0.00000018 </v>
   <v>      -0.00000026      -0.00000010      -0.00000008 </v>
   <v>      -0.00000046       0.00000013      -0.00000027 </v>
   <v>       0.00000070      -0.00000026      -0.00000024 </v>
   <v>       0.00000040       0.00000013       0.00000047 </v>
   <v>       0.00000004       0.00000045       0.00000003 </v>
   <v>       0.00000031      -0.00000017      -0.00000017 </v>
   <v>       0.00000005      -0.00000003       0.00000036 </v>
   <v>       0.00000009      -0.00000014      -0.00000035 </v>
   <v>       0.00000006      -0.00000011      -0.00000014 </v>
   <v>       0.00000023       0.00000013       0.00000041 </v>
   <v>      -0.00000002      -0.00000002      -0.00000016 </v>
   <v>      -0.00000009       0.00000018      -0.00000022 </v>
   <v>       0.00000012      -0.00000008       0.00000007 </v>
   <v>      -0.00000014      -0.00000006      -0.00000003 </v>
   <v>       0.00000048      -0.00000029       0.00000021 </v>
   <v>       0.00000015       0.00000021      -0.00000015 </v>
   <v>      -0.00000019       0.00000051       0.00000076 </v>
   <v>      -0.00000013      -0.00000019      -0.00000099 </v>
   <v>       0.00000020      -0.00000035       0.00000001 </v>
   <v>       0.00000079       0.00000069       0.00000031 </v>
   <v>       0.00000069       0.00000003       0.00000037 </v>
   <v>       0.00000054       0.00000008      -0.00000019 </v>
   <v>      -0.00000056      -0.00000118      -0.00000147 </v>
   <v>      -0.00000018       0.00000132       0.00000066 </v>
   <v>       0.00000006      -0.00000139       0.00000034 </v>
   <v>       0.00000030       0.00000069      -0.00000111 </v>
   <v>       0.00000017      -0.00000079      -0.00000021 </v>
   <v>      -0.00000049       0.00000036       0.00000065 </v>
   <v>       0.00000006      -0.00000125       0.00000046 </v>
   <v>      -0.00000009       0.00000151       0.00000033 </v>
   <v>      -0.00000052       0.00000045      -0.00000122 </v>
   <v>      -0.00000095      -0.00000039       0.00000038 </v>
   <v>       0.00000048      -0.00000013      -0.00000003 </v>
   <v>      -0.00000008       0.00000090      -0.00000024 </v>
   <v>      -0.00000024       0.00000098       0.00000086 </v>
   <v>       0.00000019      -0.00000066      -0.00000018 </v>
   <v>      -0.00000088       0.00000038      -0.00000100 </v>
   <v>      -0.00000046      -0.00000104       0.00000109 </v>
   <v>       0.00000059      -0.00000007       0.00000009 </v>
   <v>       0.00000084      -0.00000022      -0.00000076 </v>
   <v>      -0.00000017       0.00000008      -0.00000096 </v>
   <v>      -0.00000003      -0.00000035      -0.00000001 </v>
   <v>       0.00000050      -0.00000000       0.00000175 </v>
   <v>       0.00000031      -0.00000010      -0.00000093 </v>
   <v>      -0.00000061       0.00000053      -0.00000004 </v>
   <v>      -0.00000060      -0.00000038       0.00000122 </v>
  </varray>
  <varray name="stress" >
   <v>       0.00009244       0.00000011       0.00000026 </v>
   <v>       0.00000011       0.00009054      -0.00000022 </v>
   <v>       0.00000030      -0.00000025       0.00009147 </v>
  </varray>
  <energy>
   <i name="e_fr_energy">   -482.08611240 </i>
   <i name="e_wo_entrp">   -482.09514137 </i>
   <i name="e_0_energy">   -482.08912206 </i>
  </energy>
  <time name="totalsc">  286.46  287.74</time>
  <eigenvalues>
   <array>
    <dimension dim="1">band</dimension>
    <dimension dim="2">kpoint</dimension>
    <dimension dim="3">spin</dimension>
    <field>eigene</field>
    <field>occ</field>
    <set>
     <set comment="spin 1">
      <set comment="kpoint 1">
       <r>   -7.3302    1.0000 </r>
       <r>   -5.7452    1.0000 </r>
       <r>   -5.7452    1.0000 </r>
       <r>   -5.7452    1.0000 </r>
       <r>   -5.7452    1.0000 </r>
       <r>   -5.7452    1.0000 </r>
       <r>   -5.7452    1.0000 </r>
       <r>   -4.3320    1.0000 </r>
       <r>   -4.3320    1.0000 </r>
       <r>   -4.3320    1.0000 </r>
       <r>   -4.3320    1.0000 </r>
       <r>   -4.3320    1.0000 </r>
       <r>   -4.3320    1.0000 </r>
       <r>   -4.3320    1.0000 </r>
       <r>   -4.3320    1.0000 </r>
       <r>   -4.3320    1.0000 </r>
       <r>   -4.3320    1.0000 </r>
       <r>   -4.3320    1.0000 </r>
       <r>   -4.3320    1.0000 </r>
       <r>   -3.8004    1.0000 </r>
       <r>   -3.8004    1.0000 </r>
       <r>   -3.8004    1.0000 </r>
       <r>   -3.8004    1.0000 </r>
       <r>   -2.3597    1.0000 </r>
       <r>   -2.3597    1.0000 </r>
       <r>   -2.3597    1.0000 </r>
       <r>   -2.1339    1.0000 </r>
       <r>   -2.1339    1.0000 </r>
       <r>   -2.1339    1.0000 </r>
       <r>   -2.1339    1.0000 </r>
       <r>   -2.1339    1.0000 </r>
       <r>   -2.1339    1.0000 </r>
       <r>   -0.4821    1.0000 </r>
       <r>   -0.4821    1.0000 </r>
       <r>   -0.4821    1.0000 </r>
       <r>   -0.4821    1.0000 </r>
       <r>    0.2358    1.0000 </r>
       <r>    0.2358    1.0000 </r>
       <r>    0.2358    1.0000 </r>
       <r>    0.9949    1.0000 </r>
       <r>    0.9949    1.0000 </r>
       <r>    0.9949    1.0000 </r>
       <r>    0.9949    1.0000 </r>
       <r>    0.9949    1.0000 </r>
       <r>    0.9949    1.0000 </r>
       <r>    2.0801    1.0000 </r>
       <r>    2.0801    1.0000 </r>
       <r>    2.0801    1.0000 </r>
       <r>    2.0801    1.0000 </r>
       <r>    2.0801    1.0000 </r>
       <r>    2.0801    1.0000 </r>
       <r>    2.0801    1.0000 </r>
       <r>    2.0801    1.0000 </r>
       <r>    2.0801    1.0000 </r>
       <r>    2.0801    1.0000 </r>
       <r>    2.0801    1.0000 </r>
       <r>    2.0801    1.0000 </r>
       <r>    3.0568    1.0000 </r>
       <r>    3.0568    1.0000 </r>
       <r>    3.0568    1.0000 </r>
       <r>    3.0568    1.0000 </r>
       <r>    3.0568    1.0000 </r>
       <r>    3.0568    1.0000 </r>
       <r>    3.3517    1.0000 </r>
       <r>    3.3517    1.0000 </r>
       <r>    3.3517    1.0000 </r>
       <r>    3.3517    1.0000 </r>
       <r>    3.3517    1.0000 </r>
       <r>    3.3517    1.0000 </r>
       <r>    3.6910    1.0000 </r>
       <r>    3.6910    1.0000 </r>
       <r>    3.6910    1.0000 </r>
       <r>    3.6910    1.0000 </r>
       <r>    3.6910    1.0000 </r>
       <r>    3.6910    1.0000 </r>
       <r>    3.6910    1.0000 </r>
       <r>    3.6910    1.0000 </r>
       <r>    3.6910    1.0000 </r>
       <r>    3.6910    1.0000 </r>
       <r>    3.6910    1.0000 </r>
       <r>    3.6910    1.0000 </r>
       <r>    4.6523    1.0000 </r>
       <r>    4.6523    1.0000 </r>
       <r>    4.6523    1.0000 </r>
       <r>    4.6523    1.0000 </r>
       <r>    4.6523    1.0000 </r>
       <r>    4.6523    1.0000 </r>
       <r>    4.8337    1.0000 </r>
       <r>    4.8337    1.0000 </r>
       <r>    4.8337    1.0000 </r>
       <r>    4.8337    1.0000 </r>
       <r>    4.8337    1.0000 </r>
       <r>    4.8337    1.0000 </r>
       <r>    6.0810    1.0000 </r>
       <r>    6.0810    1.0000 </r>
       <r>    6.0810    1.0000 </r>
       <r>    6.0810    1.0000 </r>
       <r>    6.0810    1.0000 </r>
       <r>    6.0810    1.0000 </r>
       <r>    6.0810    1.0000 </r>
       <r>    6.0810    1.0000 </r>
       <r>    6.0810    1.0000 </r>
       <r>    6.0810    1.0000 </r>
       <r>    6.0810    1.0000 </r>
       <r>    6.0810    1.0000 </r>
       <r>    6.8232    1.0000 </r>
       <r>    6.8232    1.0000 </r>
       <r>    6.8232    1.0000 </r>
       <r>    6.8232    1.0000 </r>
       <r>    6.8232    1.0000 </r>
       <r>    6.8232    1.0000 </r>
       <r>    6.8232    1.0000 </r>
       <r>    6.8232    1.0000 </r>
       <r>    6.8232    1.0000 </r>
       <r>    6.8232    1.0000 </r>
       <r>    6.8232    1.0000 </r>
       <r>    6.8232    1.0000 </r>
       <r>    6.9507    1.0000 </r>
       <r>    6.9507    1.0000 </r>
       <r>    6.9507    1.0000 </r>
       <r>    6.9507    1.0000 </r>
       <r>    6.9507    1.0000 </r>
       <r>    6.9507    1.0000 </r>
       <r>    6.9507    1.0000 </r>
       <r>    6.9507    1.0000 </r>
       <r>    8.0087    0.9303 </r>
       <r>    8.0087    0.9303 </r>
       <r>    8.0087    0.9303 </r>
       <r>    9.3678   -0.0000 </r>
       <r>    9.3678   -0.0000 </r>
       <r>    9.3678   -0.0000 </r>
       <r>   12.0300   -0.0000 </r>
       <r>   12.0300   -0.0000 </r>
       <r>   12.0300   -0.0000 </r>
       <r>   12.0300   -0.0000 </r>
       <r>   12.0300   -0.0000 </r>
       <r>   12.0300   -0.0000 </r>
       <r>   12.2936   -0.0000 </r>
       <r>   12.2936   -0.0000 </r>
       <r>   12.2936   -0.0000 </r>
       <r>   13.2001   -0.0000 </r>
       <r>   13.2001   -0.0000 </r>
       <r>   13.2001   -0.0000 </r>
       <r>   13.2001   -0.0000 </r>
       <r>   13.2001   -0.0000 </r>
       <r>   13.2001   -0.0000 </r>
       <r>   13.3491   -0.0000 </r>
       <r>   13.3491   -0.0000 </r>
       <r>   13.3491   -0.0000 </r>
       <r>   13.3491   -0.0000 </r>
       <r>   13.4996   -0.0000 </r>
       <r>   13.4996   -0.0000 </r>
       <r>   13.4996   -0.0000 </r>
       <r>   13.4996   -0.0000 </r>
       <r>   13.4996   -0.0000 </r>
       <r>   13.4996   -0.0000 </r>
       <r>   13.4996   -0.0000 </r>
       <r>   13.4996   -0.0000 </r>
       <r>   13.4996   -0.0000 </r>
       <r>   13.4996   -0.0000 </r>
       <r>   13.4996   -0.0000 </r>
       <r>   13.4996   -0.0000 </r>
       <r>   14.1199    0.0000 </r>
       <r>   14.3034    0.0000 </r>
       <r>   14.3034    0.0000 </r>
       <r>   14.3034    0.0000 </r>
       <r>   14.3034    0.0000 </r>
       <r>   14.3034    0.0000 </r>
      </set>
      <set comment="kpoint 2">
       <r>   -7.1505    1.0000 </r>
       <r>   -6.6164    1.0000 </r>
       <r>   -5.5801    1.0000 </r>
       <r>   -5.5801    1.0000 </r>
       <r>   -5.5801    1.0000 </r>
       <r>   -5.5801    1.0000 </r>
       <r>   -5.0958    1.0000 </r>
       <r>   -5.0958    1.0000 </r>
       <r>   -5.0958    1.0000 </r>
       <r>   -5.0958    1.0000 </r>
       <r>   -4.5780    1.0000 </r>
       <r>   -4.2225    1.0000 </r>
       <r>   -4.2225    1.0000 </r>
       <r>   -4.2225    1.0000 </r>
       <r>   -4.2225    1.0000 </r>
       <r>   -3.9621    1.0000 </r>
       <r>   -3.9621    1.0000 </r>
       <r>   -3.9621    1.0000 </r>
       <r>   -3.9621    1.0000 </r>
       <r>   -3.3897    1.0000 </r>
       <r>   -3.3897    1.0000 </r>
       <r>   -3.3897    1.0000 </r>
       <r>   -3.3897    1.0000 </r>
       <r>   -3.2347    1.0000 </r>
       <r>   -2.5128    1.0000 </r>
       <r>   -2.5128    1.0000 </r>
       <r>   -2.5128    1.0000 </r>
       <r>   -2.5128    1.0000 </r>
       <r>   -2.3071    1.0000 </r>
       <r>   -2.3071    1.0000 </r>
       <r>   -2.1945    1.0000 </r>
       <r>   -2.1945    1.0000 </r>
       <r>   -0.0157    1.0000 </r>
       <r>   -0.0157    1.0000 </r>
       <r>   -0.0157    1.0000 </r>
       <r>   -0.0157    1.0000 </r>
       <r>    0.3764    1.0000 </r>
       <r>    0.3764    1.0000 </r>
       <r>    0.7359    1.0000 </r>
       <r>    0.7359    1.0000 </r>
       <r>    1.0640    1.0000 </r>
       <r>    1.0640    1.0000 </r>
       <r>    1.0640    1.0000 </r>
       <r>    1.0640    1.0000 </r>
       <r>    1.1062    1.0000 </r>
       <r>    1.1062    1.0000 </r>
       <r>    1.1062    1.0000 </r>
       <r>    1.1062    1.0000 </r>
       <r>    1.2431    1.0000 </r>
       <r>    1.4054    1.0000 </r>
       <r>    1.4054    1.0000 </r>
       <r>    1.4054    1.0000 </r>
       <r>    1.4054    1.0000 </r>
       <r>    2.7196    1.0000 </r>
       <r>    2.7196    1.0000 </r>
       <r>    2.7196    1.0000 </r>
       <r>    2.7196    1.0000 </r>
       <r>    2.9495    1.0000 </r>
       <r>    2.9830    1.0000 </r>
       <r>    2.9830    1.0000 </r>
       <r>    2.9830    1.0000 </r>
       <r>    2.9830    1.0000 </r>
       <r>    3.0094    1.0000 </r>
       <r>    3.0094    1.0000 </r>
       <r>    3.0094    1.0000 </r>
       <r>    3.0094    1.0000 </r>
       <r>    3.5290    1.0000 </r>
       <r>    3.5290    1.0000 </r>
       <r>    3.6531    1.0000 </r>
       <r>    3.6531    1.0000 </r>
       <r>    4.0341    1.0000 </r>
       <r>    4.0341    1.0000 </r>
       <r>    4.0341    1.0000 </r>
       <r>    4.0341    1.0000 </r>
       <r>    4.3707    1.0000 </r>
       <r>    4.3707    1.0000 </r>
       <r>    4.3906    1.0000 </r>
       <r>    4.3906    1.0000 </r>
       <r>    4.4508    1.0000 </r>
       <r>    4.4508    1.0000 </r>
       <r>    4.4508    1.0000 </r>
       <r>    4.4508    1.0000 </r>
       <r>    4.6537    1.0000 </r>
       <r>    4.6537    1.0000 </r>
       <r>    4.6537    1.0000 </r>
       <r>    4.6537    1.0000 </r>
       <r>    4.8145    1.0000 </r>
       <r>    4.8145    1.0000 </r>
       <r>    4.8145    1.0000 </r>
       <r>    4.8145    1.0000 </r>
       <r>    4.9808    1.0000 </r>
       <r>    4.9808    1.0000 </r>
       <r>    5.4100    1.0000 </r>
       <r>    5.4100    1.0000 </r>
       <r>    5.6202    1.0000 </r>
       <r>    5.6202    1.0000 </r>
       <r>    5.6202    1.0000 </r>
       <r>    5.6202    1.0000 </r>
       <r>    5.8949    1.0000 </r>
       <r>    5.8949    1.0000 </r>
       <r>    5.8949    1.0000 </r>
       <r>    5.8949    1.0000 </r>
       <r>    6.2006    1.0000 </r>
       <r>    6.2812    1.0000 </r>
       <r>    6.2812    1.0000 </r>
       <r>    6.2812    1.0000 </r>
       <r>    6.2812    1.0000 </r>
       <r>    6.4797    1.0000 </r>
       <r>    6.4797    1.0000 </r>
       <r>    6.4797    1.0000 </r>
       <r>    6.4797    1.0000 </r>
       <r>    6.8543    1.0000 </r>
       <r>    6.8543    1.0000 </r>
       <r>    6.8543    1.0000 </r>
       <r>    6.8543    1.0000 </r>
       <r>    6.9015    1.0000 </r>
       <r>    6.9015    1.0000 </r>
       <r>    6.9078    1.0000 </r>
       <r>    6.9078    1.0000 </r>
       <r>    6.9078    1.0000 </r>
       <r>    6.9078    1.0000 </r>
       <r>    6.9191    1.0000 </r>
       <r>    6.9191    1.0000 </r>
       <r>    6.9191    1.0000 </r>
       <r>    6.9191    1.0000 </r>
       <r>    7.4557    1.0000 </r>
       <r>    7.6654    1.0023 </r>
       <r>    7.6654    1.0023 </r>
       <r>    9.6910   -0.0000 </r>
       <r>   10.2131   -0.0000 </r>
       <r>   10.2131   -0.0000 </r>
       <r>   10.6338   -0.0000 </r>
       <r>   11.9861   -0.0000 </r>
       <r>   11.9861   -0.0000 </r>
       <r>   12.5123   -0.0000 </r>
       <r>   12.6724   -0.0000 </r>
       <r>   12.6724   -0.0000 </r>
       <r>   12.6724   -0.0000 </r>
       <r>   12.6724   -0.0000 </r>
       <r>   13.0020   -0.0000 </r>
       <r>   13.0020   -0.0000 </r>
       <r>   13.0020   -0.0000 </r>
       <r>   13.0020   -0.0000 </r>
       <r>   13.0927   -0.0000 </r>
       <r>   13.0927   -0.0000 </r>
       <r>   13.1018   -0.0000 </r>
       <r>   13.1018   -0.0000 </r>
       <r>   13.1018   -0.0000 </r>
       <r>   13.1018   -0.0000 </r>
       <r>   13.1817   -0.0000 </r>
       <r>   13.4970   -0.0000 </r>
       <r>   13.6580    0.0000 </r>
       <r>   13.6580    0.0000 </r>
       <r>   13.6580    0.0000 </r>
       <r>   13.6580    0.0000 </r>
       <r>   13.6956    0.0000 </r>
       <r>   13.6956    0.0000 </r>
       <r>   13.6956    0.0000 </r>
       <r>   13.6956    0.0000 </r>
       <r>   13.9732    0.0000 </r>
       <r>   13.9732    0.0000 </r>
       <r>   13.9732    0.0000 </r>
       <r>   13.9732    0.0000 </r>
       <r>   14.4870    0.0000 </r>
       <r>   14.8956    0.0000 </r>
       <r>   14.9068    0.0000 </r>
       <r>   14.9086    0.0000 </r>
       <r>   14.9260    0.0000 </r>
      </set>
      <set comment="kpoint 3">
       <r>   -7.1505    1.0000 </r>
       <r>   -6.6164    1.0000 </r>
       <r>   -5.5801    1.0000 </r>
       <r>   -5.5801    1.0000 </r>
       <r>   -5.5801    1.0000 </r>
       <r>   -5.5801    1.0000 </r>
       <r>   -5.0958    1.0000 </r>
       <r>   -5.0958    1.0000 </r>
       <r>   -5.0958    1.0000 </r>
       <r>   -5.0958    1.0000 </r>
       <r>   -4.5780    1.0000 </r>
       <r>   -4.2225    1.0000 </r>
       <r>   -4.2225    1.0000 </r>
       <r>   -4.2225    1.0000 </r>
       <r>   -4.2225    1.0000 </r>
       <r>   -3.9621    1.0000 </r>
       <r>   -3.9621    1.0000 </r>
       <r>   -3.9621    1.0000 </r>
       <r>   -3.9621    1.0000 </r>
       <r>   -3.3897    1.0000 </r>
       <r>   -3.3897    1.0000 </r>
       <r>   -3.3897    1.0000 </r>
       <r>   -3.3897    1.0000 </r>
       <r>   -3.2347    1.0000 </r>
       <r>   -2.5128    1.0000 </r>
       <r>   -2.5128    1.0000 </r>
       <r>   -2.5128    1.0000 </r>
       <r>   -2.5128    1.0000 </r>
       <r>   -2.3071    1.0000 </r>
       <r>   -2.3071    1.0000 </r>
       <r>   -2.1945    1.0000 </r>
       <r>   -2.1945    1.0000 </r>
       <r>   -0.0157    1.0000 </r>
       <r>   -0.0157    1.0000 </r>
       <r>   -0.0157    1.0000 </r>
       <r>   -0.0157    1.0000 </r>
       <r>    0.3764    1.0000 </r>
       <r>    0.3764    1.0000 </r>
       <r>    0.7359    1.0000 </r>
       <r>    0.7359    1.0000 </r>
       <r>    1.0640    1.0000 </r>
       <r>    1.0640    1.0000 </r>
       <r>    1.0640    1.0000 </r>
       <r>    1.0640    1.0000 </r>
       <r>    1.1062    1.0000 </r>
       <r>    1.1062    1.0000 </r>
       <r>    1.1062    1.0000 </r>
       <r>    1.1062    1.0000 </r>
       <r>    1.2431    1.0000 </r>
       <r>    1.4054    1.0000 </r>
       <r>    1.4054    1.0000 </r>
       <r>    1.4054    1.0000 </r>
       <r>    1.4054    1.0000 </r>
       <r>    2.7196    1.0000 </r>
       <r>    2.7196    1.0000 </r>
       <r>    2.7196    1.0000 </r>
       <r>    2.7196    1.0000 </r>
       <r>    2.9495    1.0000 </r>
       <r>    2.9830    1.0000 </r>
       <r>    2.9830    1.0000 </r>
       <r>    2.9830    1.0000 </r>
       <r>    2.9830    1.0000 </r>
       <r>    3.0094    1.0000 </r>
       <r>    3.0094    1.0000 </r>
       <r>    3.0094    1.0000 </r>
       <r>    3.0094    1.0000 </r>
       <r>    3.5290    1.0000 </r>
       <r>    3.5290    1.0000 </r>
       <r>    3.6531    1.0000 </r>
       <r>    3.6531    1.0000 </r>
       <r>    4.0341    1.0000 </r>
       <r>    4.0341    1.0000 </r>
       <r>    4.0341    1.0000 </r>
       <r>    4.0341    1.0000 </r>
       <r>    4.3707    1.0000 </r>
       <r>    4.3707    1.0000 </r>
       <r>    4.3906    1.0000 </r>
       <r>    4.3906    1.0000 </r>
       <r>    4.4508    1.0000 </r>
       <r>    4.4508    1.0000 </r>
       <r>    4.4508    1.0000 </r>
       <r>    4.4508    1.0000 </r>
       <r>    4.6537    1.0000 </r>
       <r>    4.6537    1.0000 </r>
       <r>    4.6537    1.0000 </r>
       <r>    4.6537    1.0000 </r>
       <r>    4.8145    1.0000 </r>
       <r>    4.8145    1.0000 </r>
       <r>    4.8145    1.0000 </r>
       <r>    4.8145    1.0000 </r>
       <r>    4.9808    1.0000 </r>
       <r>    4.9808    1.0000 </r>
       <r>    5.4100    1.0000 </r>
       <r>    5.4100    1.0000 </r>
       <r>    5.6202    1.0000 </r>
       <r>    5.6202    1.0000 </r>
       <r>    5.6202    1.0000 </r>
       <r>    5.6202    1.0000 </r>
       <r>    5.8949    1.0000 </r>
       <r>    5.8949    1.0000 </r>
       <r>    5.8949    1.0000 </r>
       <r>    5.8949    1.0000 </r>
       <r>    6.2006    1.0000 </r>
       <r>    6.2812    1.0000 </r>
       <r>    6.2812    1.0000 </r>
       <r>    6.2812    1.0000 </r>
       <r>    6.2812    1.0000 </r>
       <r>    6.4797    1.0000 </r>
       <r>    6.4797    1.0000 </r>
       <r>    6.4797    1.0000 </r>
       <r>    6.4797    1.0000 </r>
       <r>    6.8543    1.0000 </r>
       <r>    6.8543    1.0000 </r>
       <r>    6.8543    1.0000 </r>
       <r>    6.8543    1.0000 </r>
       <r>    6.9015    1.0000 </r>
       <r>    6.9015    1.0000 </r>
       <r>    6.9078    1.0000 </r>
       <r>    6.9078    1.0000 </r>
       <r>    6.9078    1.0000 </r>
       <r>    6.9078    1.0000 </r>
       <r>    6.9191    1.0000 </r>
       <r>    6.9191    1.0000 </r>
       <r>    6.9191    1.0000 </r>
       <r>    6.9191    1.0000 </r>
       <r>    7.4557    1.0000 </r>
       <r>    7.6654    1.0023 </r>
       <r>    7.6654    1.0023 </r>
       <r>    9.6910   -0.0000 </r>
       <r>   10.2131   -0.0000 </r>
       <r>   10.2131   -0.0000 </r>
       <r>   10.6338   -0.0000 </r>
       <r>   11.9861   -0.0000 </r>
       <r>   11.9861   -0.0000 </r>
       <r>   12.5123   -0.0000 </r>
       <r>   12.6724   -0.0000 </r>
       <r>   12.6724   -0.0000 </r>
       <r>   12.6724   -0.0000 </r>
       <r>   12.6724   -0.0000 </r>
       <r>   13.0020   -0.0000 </r>
       <r>   13.0020   -0.0000 </r>
       <r>   13.0020   -0.0000 </r>
       <r>   13.0020   -0.0000 </r>
       <r>   13.0927   -0.0000 </r>
       <r>   13.0927   -0.0000 </r>
       <r>   13.1018   -0.0000 </r>
       <r>   13.1018   -0.0000 </r>
       <r>   13.1018   -0.0000 </r>
       <r>   13.1018   -0.0000 </r>
       <r>   13.1817   -0.0000 </r>
       <r>   13.4970   -0.0000 </r>
       <r>   13.6580    0.0000 </r>
       <r>   13.6580    0.0000 </r>
       <r>   13.6580    0.0000 </r>
       <r>   13.6580    0.0000 </r>
       <r>   13.6956    0.0000 </r>
       <r>   13.6956    0.0000 </r>
       <r>   13.6956    0.0000 </r>
       <r>   13.6956    0.0000 </r>
       <r>   13.9732    0.0000 </r>
       <r>   13.9732    0.0000 </r>
       <r>   13.9732    0.0000 </r>
       <r>   13.9732    0.0000 </r>
       <r>   14.4870    0.0000 </r>
       <r>   14.8982    0.0000 </r>
       <r>   14.9070    0.0000 </r>
       <r>   14.9096    0.0000 </r>
       <r>   14.9194    0.0000 </r>
      </set>
      <set comment="kpoint 4">
       <r>   -7.1505    1.0000 </r>
       <r>   -6.6164    1.0000 </r>
       <r>   -5.5801    1.0000 </r>
       <r>   -5.5801    1.0000 </r>
       <r>   -5.5801    1.0000 </r>
       <r>   -5.5801    1.0000 </r>
       <r>   -5.0958    1.0000 </r>
       <r>   -5.0958    1.0000 </r>
       <r>   -5.0958    1.0000 </r>
       <r>   -5.0958    1.0000 </r>
       <r>   -4.5780    1.0000 </r>
       <r>   -4.2225    1.0000 </r>
       <r>   -4.2225    1.0000 </r>
       <r>   -4.2225    1.0000 </r>
       <r>   -4.2225    1.0000 </r>
       <r>   -3.9621    1.0000 </r>
       <r>   -3.9621    1.0000 </r>
       <r>   -3.9621    1.0000 </r>
       <r>   -3.9621    1.0000 </r>
       <r>   -3.3897    1.0000 </r>
       <r>   -3.3897    1.0000 </r>
       <r>   -3.3897    1.0000 </r>
       <r>   -3.3897    1.0000 </r>
       <r>   -3.2347    1.0000 </r>
       <r>   -2.5128    1.0000 </r>
       <r>   -2.5128    1.0000 </r>
       <r>   -2.5128    1.0000 </r>
       <r>   -2.5128    1.0000 </r>
       <r>   -2.3071    1.0000 </r>
       <r>   -2.3071    1.0000 </r>
       <r>   -2.1945    1.0000 </r>
       <r>   -2.1945    1.0000 </r>
       <r>   -0.0157    1.0000 </r>
       <r>   -0.0157    1.0000 </r>
       <r>   -0.0157    1.0000 </r>
       <r>   -0.0157    1.0000 </r>
       <r>    0.3764    1.0000 </r>
       <r>    0.3764    1.0000 </r>
       <r>    0.7359    1.0000 </r>
       <r>    0.7359    1.0000 </r>
       <r>    1.0640    1.0000 </r>
       <r>    1.0640    1.0000 </r>
       <r>    1.0640    1.0000 </r>
       <r>    1.0640    1.0000 </r>
       <r>    1.1062    1.0000 </r>
       <r>    1.1062    1.0000 </r>
       <r>    1.1062    1.0000 </r>
       <r>    1.1062    1.0000 </r>
       <r>    1.2431    1.0000 </r>
       <r>    1.4054    1.0000 </r>
       <r>    1.4054    1.0000 </r>
       <r>    1.4054    1.0000 </r>
       <r>    1.4054    1.0000 </r>
       <r>    2.7196    1.0000 </r>
       <r>    2.7196    1.0000 </r>
       <r>    2.7196    1.0000 </r>
       <r>    2.7196    1.0000 </r>
       <r>    2.9495    1.0000 </r>
       <r>    2.9830    1.0000 </r>
       <r>    2.9830    1.0000 </r>
       <r>    2.9830    1.0000 </r>
       <r>    2.9830    1.0000 </r>
       <r>    3.0094    1.0000 </r>
       <r>    3.0094    1.0000 </r>
       <r>    3.0094    1.0000 </r>
       <r>    3.0094    1.0000 </r>
       <r>    3.5290    1.0000 </r>
       <r>    3.5290    1.0000 </r>
       <r>    3.6531    1.0000 </r>
       <r>    3.6531    1.0000 </r>
       <r>    4.0341    1.0000 </r>
       <r>    4.0341    1.0000 </r>
       <r>    4.0341    1.0000 </r>
       <r>    4.0341    1.0000 </r>
       <r>    4.3707    1.0000 </r>
       <r>    4.3707    1.0000 </r>
       <r>    4.3906    1.0000 </r>
       <r>    4.3906    1.0000 </r>
       <r>    4.4508    1.0000 </r>
       <r>    4.4508    1.0000 </r>
       <r>    4.4508    1.0000 </r>
       <r>    4.4508    1.0000 </r>
       <r>    4.6537    1.0000 </r>
       <r>    4.6537    1.0000 </r>
       <r>    4.6537    1.0000 </r>
       <r>    4.6537    1.0000 </r>
       <r>    4.8145    1.0000 </r>
       <r>    4.8145    1.0000 </r>
       <r>    4.8145    1.0000 </r>
       <r>    4.8145    1.0000 </r>
       <r>    4.9808    1.0000 </r>
       <r>    4.9808    1.0000 </r>
       <r>    5.4100    1.0000 </r>
       <r>    5.4100    1.0000 </r>
       <r>    5.6202    1.0000 </r>
       <r>    5.6202    1.0000 </r>
       <r>    5.6202    1.0000 </r>
       <r>    5.6202    1.0000 </r>
       <r>    5.8949    1.0000 </r>
       <r>    5.8949    1.0000 </r>
       <r>    5.8949    1.0000 </r>
       <r>    5.8949    1.0000 </r>
       <r>    6.2006    1.0000 </r>
       <r>    6.2812    1.0000 </r>
       <r>    6.2812    1.0000 </r>
       <r>    6.2812    1.0000 </r>
       <r>    6.2812    1.0000 </r>
       <r>    6.4797    1.0000 </r>
       <r>    6.4797    1.0000 </r>
       <r>    6.4797    1.0000 </r>
       <r>    6.4797    1.0000 </r>
       <r>    6.8543    1.0000 </r>
       <r>    6.8543    1.0000 </r>
       <r>    6.8543    1.0000 </r>
       <r>    6.8543    1.0000 </r>
       <r>    6.9015    1.0000 </r>
       <r>    6.9015    1.0000 </r>
       <r>    6.9078    1.0000 </r>
       <r>    6.9078    1.0000 </r>
       <r>    6.9078    1.0000 </r>
       <r>    6.9078    1.0000 </r>
       <r>    6.9191    1.0000 </r>
       <r>    6.9191    1.0000 </r>
       <r>    6.9191    1.0000 </r>
       <r>    6.9191    1.0000 </r>
       <r>    7.4557    1.0000 </r>
       <r>    7.6654    1.0023 </r>
       <r>    7.6654    1.0023 </r>
       <r>    9.6910   -0.0000 </r>
       <r>   10.2131   -0.0000 </r>
       <r>   10.2131   -0.0000 </r>
       <r>   10.6338   -0.0000 </r>
       <r>   11.9861   -0.0000 </r>
       <r>   11.9861   -0.0000 </r>
       <r>   12.5123   -0.0000 </r>
       <r>   12.6724   -0.0000 </r>
       <r>   12.6724   -0.0000 </r>
       <r>   12.6724   -0.0000 </r>
       <r>   12.6724   -0.0000 </r>
       <r>   13.0020   -0.0000 </r>
       <r>   13.0020   -0.0000 </r>
       <r>   13.0020   -0.0000 </r>
       <r>   13.0020   -0.0000 </r>
       <r>   13.0927   -0.0000 </r>
       <r>   13.0927   -0.0000 </r>
       <r>   13.1018   -0.0000 </r>
       <r>   13.1018   -0.0000 </r>
       <r>   13.1018   -0.0000 </r>
       <r>   13.1018   -0.0000 </r>
       <r>   13.1817   -0.0000 </r>
       <r>   13.4970   -0.0000 </r>
       <r>   13.6580    0.0000 </r>
       <r>   13.6580    0.0000 </r>
       <r>   13.6580    0.0000 </r>
       <r>   13.6580    0.0000 </r>
       <r>   13.6956    0.0000 </r>
       <r>   13.6956    0.0000 </r>
       <r>   13.6956    0.0000 </r>
       <r>   13.6956    0.0000 </r>
       <r>   13.9732    0.0000 </r>
       <r>   13.9732    0.0000 </r>
       <r>   13.9732    0.0000 </r>
       <r>   13.9732    0.0000 </r>
       <r>   14.4870    0.0000 </r>
       <r>   14.9037    0.0000 </r>
       <r>   14.9077    0.0000 </r>
       <r>   14.9101    0.0000 </r>
       <r>   14.9161    0.0000 </r>
      </set>
      <set comment="kpoint 5">
       <r>   -6.9721    1.0000 </r>
       <r>   -6.4423    1.0000 </r>
       <r>   -6.4423    1.0000 </r>
       <r>   -5.9271    1.0000 </r>
       <r>   -5.4188    1.0000 </r>
       <r>   -5.4188    1.0000 </r>
       <r>   -4.9488    1.0000 </r>
       <r>   -4.9488    1.0000 </r>
       <r>   -4.9488    1.0000 </r>
       <r>   -4.9488    1.0000 </r>
       <r>   -4.5341    1.0000 </r>
       <r>   -4.5341    1.0000 </r>
       <r>   -4.4310    1.0000 </r>
       <r>   -4.4310    1.0000 </r>
       <r>   -4.0099    1.0000 </r>
       <r>   -4.0099    1.0000 </r>
       <r>   -3.5046    1.0000 </r>
       <r>   -3.5046    1.0000 </r>
       <r>   -3.3808    1.0000 </r>
       <r>   -3.3808    1.0000 </r>
       <r>   -3.3808    1.0000 </r>
       <r>   -3.3808    1.0000 </r>
       <r>   -3.1267    1.0000 </r>
       <r>   -3.1267    1.0000 </r>
       <r>   -2.8424    1.0000 </r>
       <r>   -2.8424    1.0000 </r>
       <r>   -2.7433    1.0000 </r>
       <r>   -2.7270    1.0000 </r>
       <r>   -2.7270    1.0000 </r>
       <r>   -2.3188    1.0000 </r>
       <r>   -2.3188    1.0000 </r>
       <r>   -2.2929    1.0000 </r>
       <r>   -0.1599    1.0000 </r>
       <r>   -0.1599    1.0000 </r>
       <r>    0.5022    1.0000 </r>
       <r>    0.5666    1.0000 </r>
       <r>    0.5666    1.0000 </r>
       <r>    0.5666    1.0000 </r>
       <r>    0.5666    1.0000 </r>
       <r>    0.6616    1.0000 </r>
       <r>    0.6616    1.0000 </r>
       <r>    0.8033    1.0000 </r>
       <r>    0.8033    1.0000 </r>
       <r>    0.8370    1.0000 </r>
       <r>    0.8370    1.0000 </r>
       <r>    0.9862    1.0000 </r>
       <r>    1.2223    1.0000 </r>
       <r>    1.2223    1.0000 </r>
       <r>    1.2575    1.0000 </r>
       <r>    1.2575    1.0000 </r>
       <r>    2.0638    1.0000 </r>
       <r>    2.0638    1.0000 </r>
       <r>    2.0675    1.0000 </r>
       <r>    2.0675    1.0000 </r>
       <r>    2.0675    1.0000 </r>
       <r>    2.0675    1.0000 </r>
       <r>    2.4134    1.0000 </r>
       <r>    2.5840    1.0000 </r>
       <r>    2.5840    1.0000 </r>
       <r>    2.6935    1.0000 </r>
       <r>    2.6935    1.0000 </r>
       <r>    3.2401    1.0000 </r>
       <r>    3.2401    1.0000 </r>
       <r>    3.2907    1.0000 </r>
       <r>    3.3153    1.0000 </r>
       <r>    3.3153    1.0000 </r>
       <r>    3.5242    1.0000 </r>
       <r>    3.5242    1.0000 </r>
       <r>    3.9276    1.0000 </r>
       <r>    3.9276    1.0000 </r>
       <r>    4.0624    1.0000 </r>
       <r>    4.0624    1.0000 </r>
       <r>    4.0624    1.0000 </r>
       <r>    4.0624    1.0000 </r>
       <r>    4.1040    1.0000 </r>
       <r>    4.3098    1.0000 </r>
       <r>    4.3098    1.0000 </r>
       <r>    4.4861    1.0000 </r>
       <r>    4.4861    1.0000 </r>
       <r>    4.6750    1.0000 </r>
       <r>    4.6750    1.0000 </r>
       <r>    4.9043    1.0000 </r>
       <r>    4.9043    1.0000 </r>
       <r>    4.9210    1.0000 </r>
       <r>    4.9210    1.0000 </r>
       <r>    4.9311    1.0000 </r>
       <r>    4.9311    1.0000 </r>
       <r>    5.1016    1.0000 </r>
       <r>    5.3015    1.0000 </r>
       <r>    5.3015    1.0000 </r>
       <r>    5.4196    1.0000 </r>
       <r>    5.4196    1.0000 </r>
       <r>    5.4683    1.0000 </r>
       <r>    5.4683    1.0000 </r>
       <r>    5.5823    1.0000 </r>
       <r>    5.5984    1.0000 </r>
       <r>    5.5984    1.0000 </r>
       <r>    5.6031    1.0000 </r>
       <r>    5.6031    1.0000 </r>
       <r>    5.6031    1.0000 </r>
       <r>    5.6031    1.0000 </r>
       <r>    5.8407    1.0000 </r>
       <r>    6.0235    1.0000 </r>
       <r>    6.0235    1.0000 </r>
       <r>    6.0235    1.0000 </r>
       <r>    6.0235    1.0000 </r>
       <r>    6.2074    1.0000 </r>
       <r>    6.2074    1.0000 </r>
       <r>    6.2701    1.0000 </r>
       <r>    6.2701    1.0000 </r>
       <r>    6.4227    1.0000 </r>
       <r>    6.4227    1.0000 </r>
       <r>    6.4837    1.0000 </r>
       <r>    6.4837    1.0000 </r>
       <r>    6.5326    1.0000 </r>
       <r>    6.6632    1.0000 </r>
       <r>    6.6632    1.0000 </r>
       <r>    6.7009    1.0000 </r>
       <r>    6.7009    1.0000 </r>
       <r>    6.8636    1.0000 </r>
       <r>    6.8636    1.0000 </r>
       <r>    6.8636    1.0000 </r>
       <r>    6.8636    1.0000 </r>
       <r>    7.2994    1.0000 </r>
       <r>    7.4769    1.0000 </r>
       <r>    7.4769    1.0000 </r>
       <r>    7.6251    1.0010 </r>
       <r>    7.9546    1.0104 </r>
       <r>   10.4409   -0.0000 </r>
       <r>   10.4995   -0.0000 </r>
       <r>   10.4995   -0.0000 </r>
       <r>   11.3547   -0.0000 </r>
       <r>   11.3547   -0.0000 </r>
       <r>   11.6696   -0.0000 </r>
       <r>   11.6696   -0.0000 </r>
       <r>   11.8142   -0.0000 </r>
       <r>   12.2086   -0.0000 </r>
       <r>   12.2086   -0.0000 </r>
       <r>   12.8845   -0.0000 </r>
       <r>   12.8845   -0.0000 </r>
       <r>   12.8846   -0.0000 </r>
       <r>   12.8846   -0.0000 </r>
       <r>   13.1113   -0.0000 </r>
       <r>   13.1113   -0.0000 </r>
       <r>   13.1737   -0.0000 </r>
       <r>   13.1737   -0.0000 </r>
       <r>   13.1737   -0.0000 </r>
       <r>   13.1737   -0.0000 </r>
       <r>   13.2945   -0.0000 </r>
       <r>   13.2945   -0.0000 </r>
       <r>   13.5691   -0.0000 </r>
       <r>   13.5691   -0.0000 </r>
       <r>   13.6095    0.0000 </r>
       <r>   13.6095    0.0000 </r>
       <r>   13.7665    0.0000 </r>
       <r>   13.7665    0.0000 </r>
       <r>   13.7665    0.0000 </r>
       <r>   13.7665    0.0000 </r>
       <r>   13.9077    0.0000 </r>
       <r>   13.9077    0.0000 </r>
       <r>   13.9935    0.0000 </r>
       <r>   14.0856    0.0000 </r>
       <r>   14.0856    0.0000 </r>
       <r>   14.6894    0.0000 </r>
       <r>   14.7671    0.0000 </r>
       <r>   14.7671    0.0000 </r>
       <r>   14.9848    0.0000 </r>
       <r>   15.0415    0.0000 </r>
      </set>
      <set comment="kpoint 6">
       <r>   -6.9721    1.0000 </r>
       <r>   -6.4423    1.0000 </r>
       <r>   -6.4423    1.0000 </r>
       <r>   -5.9271    1.0000 </r>
       <r>   -5.4188    1.0000 </r>
       <r>   -5.4188    1.0000 </r>
       <r>   -4.9488    1.0000 </r>
       <r>   -4.9488    1.0000 </r>
       <r>   -4.9488    1.0000 </r>
       <r>   -4.9488    1.0000 </r>
       <r>   -4.5341    1.0000 </r>
       <r>   -4.5341    1.0000 </r>
       <r>   -4.4310    1.0000 </r>
       <r>   -4.4310    1.0000 </r>
       <r>   -4.0099    1.0000 </r>
       <r>   -4.0099    1.0000 </r>
       <r>   -3.5046    1.0000 </r>
       <r>   -3.5046    1.0000 </r>
       <r>   -3.3808    1.0000 </r>
       <r>   -3.3808    1.0000 </r>
       <r>   -3.3808    1.0000 </r>
       <r>   -3.3808    1.0000 </r>
       <r>   -3.1267    1.0000 </r>
       <r>   -3.1267    1.0000 </r>
       <r>   -2.8424    1.0000 </r>
       <r>   -2.8424    1.0000 </r>
       <r>   -2.7433    1.0000 </r>
       <r>   -2.7270    1.0000 </r>
       <r>   -2.7270    1.0000 </r>
       <r>   -2.3188    1.0000 </r>
       <r>   -2.3188    1.0000 </r>
       <r>   -2.2929    1.0000 </r>
       <r>   -0.1599    1.0000 </r>
       <r>   -0.1599    1.0000 </r>
       <r>    0.5022    1.0000 </r>
       <r>    0.5666    1.0000 </r>
       <r>    0.5666    1.0000 </r>
       <r>    0.5666    1.0000 </r>
       <r>    0.5666    1.0000 </r>
       <r>    0.6616    1.0000 </r>
       <r>    0.6616    1.0000 </r>
       <r>    0.8033    1.0000 </r>
       <r>    0.8033    1.0000 </r>
       <r>    0.8370    1.0000 </r>
       <r>    0.8370    1.0000 </r>
       <r>    0.9862    1.0000 </r>
       <r>    1.2223    1.0000 </r>
       <r>    1.2223    1.0000 </r>
       <r>    1.2575    1.0000 </r>
       <r>    1.2575    1.0000 </r>
       <r>    2.0638    1.0000 </r>
       <r>    2.0638    1.0000 </r>
       <r>    2.0675    1.0000 </r>
       <r>    2.0675    1.0000 </r>
       <r>    2.0675    1.0000 </r>
       <r>    2.0675    1.0000 </r>
       <r>    2.4134    1.0000 </r>
       <r>    2.5840    1.0000 </r>
       <r>    2.5840    1.0000 </r>
       <r>    2.6935    1.0000 </r>
       <r>    2.6935    1.0000 </r>
       <r>    3.2401    1.0000 </r>
       <r>    3.2401    1.0000 </r>
       <r>    3.2907    1.0000 </r>
       <r>    3.3153    1.0000 </r>
       <r>    3.3153    1.0000 </r>
       <r>    3.5242    1.0000 </r>
       <r>    3.5242    1.0000 </r>
       <r>    3.9276    1.0000 </r>
       <r>    3.9276    1.0000 </r>
       <r>    4.0624    1.0000 </r>
       <r>    4.0624    1.0000 </r>
       <r>    4.0624    1.0000 </r>
       <r>    4.0624    1.0000 </r>
       <r>    4.1040    1.0000 </r>
       <r>    4.3098    1.0000 </r>
       <r>    4.3098    1.0000 </r>
[...]
      </set>
     </set>
    </set>
   </array>
  </eigenvalues>
  <separator name="orbital magnetization" >
   <v name="MAGDIPOLOUT">      0.00000000      0.00000000      0.00000000</v>
  </separator>
  <dos>
   <i name="efermi">      8.13344883 </i>
   <total>
    <array>
     <dimension dim="1">gridpoints</dimension>
     <dimension dim="2">spin</dimension>
     <field>energy</field>
     <field>total</field>
     <field>integrated</field>
     <set>
      <set comment="spin 1">
       <r>    -9.3302     0.0000     0.0000 </r>
       <r>    -9.2408     0.0000     0.0000 </r>
       <r>    -9.1514     0.0000     0.0000 </r>
       <r>    -9.0620     0.0000     0.0000 </r>
       <r>    -8.9727    -0.0000    -0.0000 </r>
       <r>    -8.8833    -0.0000    -0.0000 </r>
       <r>    -8.7939    -0.0000    -0.0000 </r>
       <r>    -8.7045    -0.0000    -0.0000 </r>
       <r>    -8.6151    -0.0000    -0.0000 </r>
       <r>    -8.5257    -0.0000    -0.0000 </r>
       <r>    -8.4363    -0.0000    -0.0000 </r>
       <r>    -8.3469    -0.0000    -0.0000 </r>
       <r>    -8.2575    -0.0000    -0.0000 </r>
       <r>    -8.1681    -0.0000    -0.0000 </r>
       <r>    -8.0787    -0.0000    -0.0000 </r>
       <r>    -7.9893    -0.0000    -0.0000 </r>
       <r>    -7.9000    -0.0002    -0.0000 </r>
       <r>    -7.8106    -0.0014    -0.0001 </r>
       <r>    -7.7212    -0.0071    -0.0008 </r>
       <r>    -7.6318    -0.0228    -0.0028 </r>
       <r>    -7.5424    -0.0410    -0.0065 </r>
       <r>    -7.4530    -0.0186    -0.0081 </r>
       <r>    -7.3636     0.1453     0.0048 </r>
       <r>    -7.2742     0.6231     0.0606 </r>
       <r>    -7.1848     1.5345     0.1977 </r>
       <r>    -7.0954     2.7737     0.4457 </r>
       <r>    -7.0060     3.9883     0.8022 </r>
       <r>    -6.9166     4.5452     1.2085 </r>
       <r>    -6.8273     4.0908     1.5742 </r>
       <r>    -6.7379     3.1312     1.8541 </r>
       <r>    -6.6485     2.7062     2.0960 </r>
       <r>    -6.5591     4.0000     2.4536 </r>
       <r>    -6.4697     7.0746     3.0860 </r>
       <r>    -6.3803     9.9668     3.9769 </r>
       <r>    -6.2909    10.4996     4.9155 </r>
       <r>    -6.2015     7.9316     5.6245 </r>
       <r>    -6.1121     3.8149     5.9655 </r>
       <r>    -6.0227     1.6920     6.1168 </r>
       <r>    -5.9333     3.3349     6.4149 </r>
       <r>    -5.8439     7.1834     7.0570 </r>
       <r>    -5.7545    10.5635     8.0013 </r>
       <r>    -5.6652    11.7686     9.0533 </r>
       <r>    -5.5758    11.5061    10.0819 </r>
       <r>    -5.4864    11.1688    11.0803 </r>
       <r>    -5.3970    10.1887    11.9911 </r>
       <r>    -5.3076     7.7099    12.6803 </r>
       <r>    -5.2182     5.7991    13.1987 </r>
       <r>    -5.1288     7.9537    13.9097 </r>
       <r>    -5.0394    13.8670    15.1493 </r>
       <r>    -4.9500    17.7973    16.7402 </r>
       <r>    -4.8606    14.2408    18.0132 </r>
       <r>    -4.7712     6.0345    18.5526 </r>
       <r>    -4.6818     1.9504    18.7270 </r>
       <r>    -4.5925     5.5744    19.2253 </r>
       <r>    -4.5031    12.5358    20.3459 </r>
       <r>    -4.4137    17.7808    21.9353 </r>
       <r>    -4.3243    19.9632    23.7199 </r>
       <r>    -4.2349    18.3517    25.3604 </r>
       <r>    -4.1455    14.3824    26.6460 </r>
       <r>    -4.0561    15.3008    28.0138 </r>
       <r>    -3.9667    22.8718    30.0584 </r>
       <r>    -3.8773    26.0925    32.3908 </r>
       <r>    -3.7879    18.9688    34.0865 </r>
       <r>    -3.6985    10.5197    35.0268 </r>
       <r>    -3.6091     9.2242    35.8514 </r>
       <r>    -3.5198    14.9887    37.1913 </r>
       <r>    -3.4304    23.2366    39.2684 </r>
       <r>    -3.3410    25.6417    41.5606 </r>
       <r>    -3.2516    19.2757    43.2837 </r>
       <r>    -3.1622    13.3398    44.4761 </r>
       <r>    -3.0728    14.9225    45.8101 </r>
       <r>    -2.9834    21.3821    47.7215 </r>
       <r>    -2.8940    28.8593    50.3013 </r>
       <r>    -2.8046    32.6716    53.2218 </r>
       <r>    -2.7152    27.2902    55.6613 </r>
       <r>    -2.6258    16.0727    57.0981 </r>
       <r>    -2.5364     8.9035    57.8940 </r>
       <r>    -2.4471     9.6071    58.7528 </r>
       <r>    -2.3577    14.8632    60.0815 </r>
       <r>    -2.2683    18.5149    61.7365 </r>
       <r>    -2.1789    15.6811    63.1383 </r>
       <r>    -2.0895     8.3664    63.8862 </r>
       <r>    -2.0001     2.3043    64.0922 </r>
       <r>    -1.9107    -0.2180    64.0727 </r>
       <r>    -1.8213    -0.5077    64.0273 </r>
       <r>    -1.7319    -0.2341    64.0064 </r>
       <r>    -1.6425    -0.0604    64.0010 </r>
       <r>    -1.5531    -0.0097    64.0001 </r>
       <r>    -1.4637    -0.0010    64.0000 </r>
       <r>    -1.3744    -0.0001    64.0000 </r>
       <r>    -1.2850    -0.0000    64.0000 </r>
       <r>    -1.1956    -0.0000    64.0000 </r>
       <r>    -1.1062    -0.0001    64.0000 </r>
       <r>    -1.0168    -0.0016    63.9998 </r>
       <r>    -0.9274    -0.0102    63.9989 </r>
       <r>    -0.8380    -0.0388    63.9955 </r>
       <r>    -0.7486    -0.0643    63.9897 </r>
       <r>    -0.6592     0.0620    63.9953 </r>
       <r>    -0.5698     0.4605    64.0364 </r>
       <r>    -0.4804     0.7686    64.1051 </r>
       <r>    -0.3910     0.7026    64.1679 </r>
       <r>    -0.3017     1.6005    64.3110 </r>
       <r>    -0.2123     5.1453    64.7709 </r>
       <r>    -0.1229     9.7192    65.6398 </r>
       <r>    -0.0335    11.2627    66.6466 </r>
       <r>     0.0559     8.5304    67.4091 </r>
       <r>     0.1453     5.5450    67.9048 </r>
       <r>     0.2347     7.1405    68.5431 </r>
       <r>     0.3241    12.7290    69.6809 </r>
       <r>     0.4135    18.5852    71.3423 </r>
       <r>     0.5029    23.1375    73.4106 </r>
       <r>     0.5923    25.6135    75.7002 </r>
       <r>     0.6817    26.4274    78.0626 </r>
       <r>     0.7710    29.1079    80.6646 </r>
       <r>     0.8604    32.5400    83.5734 </r>
       <r>     0.9498    30.9199    86.3374 </r>
       <r>     1.0392    27.6338    88.8077 </r>
       <r>     1.1286    31.3858    91.6133 </r>
       <r>     1.2180    39.8449    95.1751 </r>
       <r>     1.3074    41.0887    98.8481 </r>
       <r>     1.3968    29.6317   101.4969 </r>
       <r>     1.4862    13.4373   102.6981 </r>
       <r>     1.5756     2.5118   102.9226 </r>
       <r>     1.6650    -1.2789   102.8083 </r>
       <r>     1.7544    -1.2080   102.7003 </r>
       <r>     1.8437     0.9342   102.7838 </r>
       <r>     1.9331     7.6154   103.4646 </r>
       <r>     2.0225    19.8795   105.2416 </r>
       <r>     2.1119    28.8038   107.8164 </r>
       <r>     2.2013    24.8698   110.0396 </r>
       <r>     2.2907    13.2351   111.2227 </r>
       <r>     2.3801     5.2861   111.6952 </r>
       <r>     2.4695     4.8475   112.1286 </r>
       <r>     2.5589     9.9455   113.0176 </r>
       <r>     2.6483    16.3012   114.4748 </r>
       <r>     2.7377    17.7469   116.0612 </r>
       <r>     2.8271    13.7530   117.2906 </r>
       <r>     2.9165    12.3988   118.3990 </r>
       <r>     3.0058    16.7168   119.8933 </r>
       <r>     3.0952    21.2682   121.7945 </r>
       <r>     3.1846    26.1259   124.1300 </r>
       <r>     3.2740    33.1062   127.0894 </r>
       <r>     3.3634    34.9861   130.2168 </r>
       <r>     3.4528    29.5719   132.8603 </r>
       <r>     3.5422    25.4640   135.1366 </r>
       <r>     3.6316    24.0325   137.2849 </r>
       <r>     3.7210    19.1680   138.9984 </r>
       <r>     3.8104    12.1407   140.0837 </r>
       <r>     3.8998    11.8081   141.1392 </r>
       <r>     3.9892    20.4857   142.9705 </r>
       <r>     4.0785    26.9808   145.3823 </r>
       <r>     4.1679    22.6045   147.4030 </r>
       <r>     4.2573    16.8610   148.9102 </r>
       <r>     4.3467    21.5464   150.8363 </r>
       <r>     4.4361    31.5726   153.6586 </r>
       <r>     4.5255    37.0957   156.9747 </r>
       <r>     4.6149    37.2391   160.3035 </r>
       <r>     4.7043    35.0818   163.4396 </r>
       <r>     4.7937    34.5035   166.5239 </r>
       <r>     4.8831    36.3591   169.7741 </r>
       <r>     4.9725    35.0720   172.9092 </r>
       <r>     5.0619    30.6089   175.6454 </r>
       <r>     5.1512    29.8436   178.3132 </r>
       <r>     5.2406    31.5123   181.1301 </r>
       <r>     5.3300    29.9490   183.8073 </r>
       <r>     5.4194    28.6086   186.3647 </r>
       <r>     5.5088    34.8228   189.4776 </r>
       <r>     5.5982    44.7948   193.4819 </r>
       <r>     5.6876    45.8942   197.5844 </r>
       <r>     5.7770    38.0316   200.9841 </r>
       <r>     5.8664    33.0443   203.9380 </r>
       <r>     5.9558    32.6280   206.8547 </r>
       <r>     6.0452    30.5959   209.5897 </r>
       <r>     6.1346    28.0685   212.0988 </r>
       <r>     6.2239    30.0723   214.7870 </r>
       <r>     6.3133    34.4538   217.8669 </r>
       <r>     6.4027    36.7876   221.1554 </r>
       <r>     6.4921    35.5169   224.3303 </r>
       <r>     6.5815    29.1231   226.9337 </r>
       <r>     6.6709    23.0948   228.9982 </r>
       <r>     6.7603    27.9126   231.4933 </r>
       <r>     6.8497    42.1142   235.2580 </r>
       <r>     6.9391    48.5261   239.5958 </r>
       <r>     7.0285    36.4863   242.8574 </r>
       <r>     7.1179    18.1251   244.4776 </r>
       <r>     7.2073     9.3497   245.3134 </r>
       <r>     7.2966    11.2007   246.3147 </r>
       <r>     7.3860    16.8131   247.8176 </r>
       <r>     7.4754    21.2825   249.7201 </r>
       <r>     7.5648    22.2177   251.7062 </r>
       <r>     7.6542    18.8443   253.3907 </r>
       <r>     7.7436    12.3143   254.4915 </r>
       <r>     7.8330     6.1053   255.0373 </r>
       <r>     7.9224     3.6946   255.3675 </r>
       <r>     8.0118     3.7452   255.7023 </r>
       <r>     8.1012     2.7957   255.9522 </r>
       <r>     8.1906     0.9353   256.0359 </r>
       <r>     8.2800    -0.0995   256.0270 </r>
       <r>     8.3693    -0.2037   256.0087 </r>
       <r>     8.4587    -0.0792   256.0017 </r>
       <r>     8.5481    -0.0164   256.0002 </r>
       <r>     8.6375    -0.0021   256.0000 </r>
       <r>     8.7269    -0.0002   256.0000 </r>
       <r>     8.8163    -0.0008   255.9999 </r>
       <r>     8.9057    -0.0056   255.9994 </r>
       <r>     8.9951    -0.0237   255.9973 </r>
       <r>     9.0845    -0.0477   255.9930 </r>
       <r>     9.1739     0.0201   255.9948 </r>
       <r>     9.2633     0.3257   256.0240 </r>
       <r>     9.3527     0.7224   256.0885 </r>
       <r>     9.4420     0.8013   256.1602 </r>
       <r>     9.5314     0.7330   256.2257 </r>
       <r>     9.6208     1.1532   256.3288 </r>
       <r>     9.7102     1.7302   256.4834 </r>
       <r>     9.7996     1.4645   256.6143 </r>
       <r>     9.8890     0.4821   256.6574 </r>
       <r>     9.9784    -0.1339   256.6455 </r>
       <r>    10.0678     0.3900   256.6803 </r>
       <r>    10.1572     1.8937   256.8496 </r>
       <r>    10.2466     3.3100   257.1455 </r>
       <r>    10.3360     4.8037   257.5749 </r>
       <r>    10.4254     7.8767   258.2790 </r>
       <r>    10.5147    11.0588   259.2676 </r>
       <r>    10.6041    11.6873   260.3123 </r>
       <r>    10.6935    10.6006   261.2599 </r>
       <r>    10.7829     8.4461   262.0150 </r>
       <r>    10.8723     4.5950   262.4257 </r>
       <r>    10.9617     0.8905   262.5053 </r>
       <r>    11.0511    -0.7475   262.4385 </r>
       <r>    11.1405    -0.5060   262.3933 </r>
       <r>    11.2299     1.5745   262.5340 </r>
       <r>    11.3193     4.9860   262.9797 </r>
       <r>    11.4087     7.4260   263.6435 </r>
       <r>    11.4981     8.7888   264.4292 </r>
       <r>    11.5875    11.1582   265.4266 </r>
       <r>    11.6768    13.1059   266.5982 </r>
       <r>    11.7662    13.7346   267.8259 </r>
       <r>    11.8556    16.9051   269.3371 </r>
       <r>    11.9450    22.2259   271.3239 </r>
       <r>    12.0344    23.4699   273.4219 </r>
       <r>    12.1238    19.2912   275.1464 </r>
       <r>    12.2132    13.4053   276.3447 </r>
       <r>    12.3026     7.4500   277.0107 </r>
       <r>    12.3920     2.4817   277.2326 </r>
       <r>    12.4814     2.4413   277.4508 </r>
       <r>    12.5708    10.1989   278.3625 </r>
       <r>    12.6602    21.2104   280.2585 </r>
       <r>    12.7495    27.1801   282.6882 </r>
       <r>    12.8389    27.1881   285.1186 </r>
       <r>    12.9283    26.4963   287.4871 </r>
       <r>    13.0177    29.6534   290.1379 </r>
       <r>    13.1071    36.7274   293.4210 </r>
       <r>    13.1965    38.8398   296.8930 </r>
       <r>    13.2859    28.9763   299.4832 </r>
       <r>    13.3753    15.4125   300.8610 </r>
       <r>    13.4647    11.9553   301.9297 </r>
       <r>    13.5541    21.5598   303.8570 </r>
       <r>    13.6435    33.9393   306.8909 </r>
       <r>    13.7329    37.2660   310.2221 </r>
       <r>    13.8222    31.2479   313.0154 </r>
       <r>    13.9116    25.9531   315.3354 </r>
       <r>    14.0010    27.5822   317.8010 </r>
       <r>    14.0904    31.4736   320.6145 </r>
       <r>    14.1798    30.3776   323.3300 </r>
       <r>    14.2692    22.2350   325.3176 </r>
       <r>    14.3586    10.9389   326.2955 </r>
       <r>    14.4480     2.8896   326.5538 </r>
       <r>    14.5374     1.6464   326.7010 </r>
       <r>    14.6268     7.0721   327.3332 </r>
       <r>    14.7162    15.3435   328.7047 </r>
       <r>    14.8056    19.8279   330.4772 </r>
       <r>    14.8949    18.6419   332.1436 </r>
       <r>    14.9843    15.0711   333.4909 </r>
       <r>    15.0737    10.2369   334.4060 </r>
       <r>    15.1631     4.5197   334.8100 </r>
       <r>    15.2525     0.6068   334.8642 </r>
       <r>    15.3419     0.4056   334.9005 </r>
       <r>    15.4313     2.8657   335.1567 </r>
       <r>    15.5207     4.7382   335.5802 </r>
       <r>    15.6101     3.7536   335.9157 </r>
       <r>    15.6995     1.3502   336.0364 </r>
       <r>    15.7889    -0.0493   336.0320 </r>
       <r>    15.8783    -0.2383   336.0107 </r>
       <r>    15.9676    -0.0971   336.0021 </r>
       <r>    16.0570    -0.0202   336.0002 </r>
       <r>    16.1464    -0.0025   336.0000 </r>
       <r>    16.2358    -0.0002   336.0000 </r>
       <r>    16.3252    -0.0000   336.0000 </r>
       <r>    16.4146    -0.0000   336.0000 </r>
       <r>    16.5040    -0.0000   336.0000 </r>
       <r>    16.5934    -0.0000   336.0000 </r>
       <r>    16.6828    -0.0000   336.0000 </r>
       <r>    16.7722    -0.0000   336.0000 </r>
       <r>    16.8616     0.0000   336.0000 </r>
       <r>    16.9510     0.0000   336.0000 </r>
       <r>    17.0403     0.0000   336.0000 </r>
       <r>    17.1297     0.0000   336.0000 </r>
       <r>    17.2191     0.0000   336.0000 </r>
       <r>    17.3085     0.0000   336.0000 </r>
       <r>    17.3979     0.0000   336.0000 </r>
       <r>    17.4873     0.0000   336.0000 </r>
      </set>
     </set>
    </array>
   </total>
  </dos>
 </calculation>
 <structure name="finalpos" >
  <crystal>
   <varray name="basis" >
    <v>       8.74331558       0.00000000       0.00000000 </v>
    <v>       0.00000000       8.74331558       0.00000000 </v>
    <v>       0.00000000       0.00000000       8.74331558 </v>
   </varray>
   <i name="volume">    668.38771987 </i>
   <varray name="rec_basis" >
    <v>       0.11437309       0.00000000       0.00000000 </v>
    <v>       0.00000000       0.11437309       0.00000000 </v>
    <v>       0.00000000       0.00000000       0.11437309 </v>
   </varray>
  </crystal>
  <varray name="positions" >
   <v>       0.12500000       0.12500000       0.12500000 </v>
   <v>       0.12500000       0.37500000       0.37500000 </v>
   <v>       0.37500000       0.12500000       0.37500000 </v>
   <v>       0.37500000       0.37500000       0.12500000 </v>
   <v>       0.12500000       0.12500000       0.62500000 </v>
   <v>       0.12500000       0.37500000       0.87500000 </v>
   <v>       0.37500000       0.12500000       0.87500000 </v>
   <v>       0.37500000       0.37500000       0.62500000 </v>
   <v>       0.12500000       0.62500000       0.12500000 </v>
   <v>       0.12500000       0.87500000       0.37500000 </v>
   <v>       0.37500000       0.62500000       0.37500000 </v>
   <v>       0.37500000       0.87500000       0.12500000 </v>
   <v>       0.12500000       0.62500000       0.62500000 </v>
   <v>       0.12500000       0.87500000       0.87500000 </v>
   <v>       0.37500000       0.62500000       0.87500000 </v>
   <v>       0.37500000       0.87500000       0.62500000 </v>
   <v>       0.62500000       0.12500000       0.12500000 </v>
   <v>       0.62500000       0.37500000       0.37500000 </v>
   <v>       0.87500000       0.12500000       0.37500000 </v>
   <v>       0.87500000       0.37500000       0.12500000 </v>
   <v>       0.62500000       0.12500000       0.62500000 </v>
   <v>       0.62500000       0.37500000       0.87500000 </v>
   <v>       0.87500000       0.12500000       0.87500000 </v>
   <v>       0.87500000       0.37500000       0.62500000 </v>
   <v>       0.62500000       0.62500000       0.12500000 </v>
   <v>       0.62500000       0.87500000       0.37500000 </v>
   <v>       0.87500000       0.62500000       0.37500000 </v>
   <v>       0.87500000       0.87500000       0.12500000 </v>
   <v>       0.62500000       0.62500000       0.62500000 </v>
   <v>       0.62500000       0.87500000       0.87500000 </v>
   <v>       0.87500000       0.62500000       0.87500000 </v>
   <v>       0.87500000       0.87500000       0.62500000 </v>
   <v>       0.00000000       0.00000000       0.00000000 </v>
   <v>       0.00000000       0.25000000       0.25000000 </v>
   <v>       0.25000000       0.00000000       0.25000000 </v>
   <v>       0.25000000       0.25000000       0.00000000 </v>
   <v>       0.00000000       0.00000000       0.50000000 </v>
   <v>       0.00000000       0.25000000       0.75000000 </v>
   <v>       0.25000000       0.00000000       0.75000000 </v>
   <v>       0.25000000       0.25000000       0.50000000 </v>
   <v>       0.00000000       0.50000000       0.00000000 </v>
   <v>       0.00000000       0.75000000       0.25000000 </v>
   <v>       0.25000000       0.50000000       0.25000000 </v>
   <v>       0.25000000       0.75000000       0.00000000 </v>
   <v>       0.00000000       0.50000000       0.50000000 </v>
   <v>       0.00000000       0.75000000       0.75000000 </v>
   <v>       0.25000000       0.50000000       0.75000000 </v>
   <v>       0.25000000       0.75000000       0.50000000 </v>
   <v>       0.50000000       0.00000000       0.00000000 </v>
   <v>       0.50000000       0.25000000       0.25000000 </v>
   <v>       0.75000000       0.00000000       0.25000000 </v>
   <v>       0.75000000       0.25000000       0.00000000 </v>
   <v>       0.50000000       0.00000000       0.50000000 </v>
   <v>       0.50000000       0.25000000       0.75000000 </v>
   <v>       0.75000000       0.00000000       0.75000000 </v>
   <v>       0.75000000       0.25000000       0.50000000 </v>
   <v>       0.50000000       0.50000000       0.00000000 </v>
   <v>       0.50000000       0.75000000       0.25000000 </v>
   <v>       0.75000000       0.50000000       0.25000000 </v>
   <v>       0.75000000       0.75000000       0.00000000 </v>
   <v>       0.50000000       0.50000000       0.50000000 </v>
   <v>       0.50000000       0.75000000       0.75000000 </v>
   <v>       0.75000000       0.50000000       0.75000000 </v>
   <v>       0.75000000       0.75000000       0.50000000 </v>
  </varray>
 </structure>
</modeling>
