unknown system                          
           1
     8.743316    0.000000    0.000000
     0.000000    8.743316    0.000000
     0.000000    0.000000    8.743316
   C    Si
    32    32
Direct configuration=     1
   0.12500000  0.12500000  0.12500000
   0.12500000  0.37500000  0.37500000
   0.37500000  0.12500000  0.37500000
   0.37500000  0.37500000  0.12500000
   0.12500000  0.12500000  0.62500000
   0.12500000  0.37500000  0.87500000
   0.37500000  0.12500000  0.87500000
   0.37500000  0.37500000  0.62500000
   0.12500000  0.62500000  0.12500000
   0.12500000  0.87500000  0.37500000
   0.37500000  0.62500000  0.37500000
   0.37500000  0.87500000  0.12500000
   0.12500000  0.62500000  0.62500000
   0.12500000  0.87500000  0.87500000
   0.37500000  0.62500000  0.87500000
   0.37500000  0.87500000  0.62500000
   0.62500000  0.12500000  0.12500000
   0.62500000  0.37500000  0.37500000
   0.87500000  0.12500000  0.37500000
   0.87500000  0.37500000  0.12500000
   0.62500000  0.12500000  0.62500000
   0.62500000  0.37500000  0.87500000
   0.87500000  0.12500000  0.87500000
   0.87500000  0.37500000  0.62500000
   0.62500000  0.62500000  0.12500000
   0.62500000  0.87500000  0.37500000
   0.87500000  0.62500000  0.37500000
   0.87500000  0.87500000  0.12500000
   0.62500000  0.62500000  0.62500000
   0.62500000  0.87500000  0.87500000
   0.87500000  0.62500000  0.87500000
   0.87500000  0.87500000  0.62500000
   0.00000000  0.00000000  0.00000000
   0.00000000  0.25000000  0.25000000
   0.25000000  0.00000000  0.25000000
   0.25000000  0.25000000  0.00000000
   0.00000000  0.00000000  0.50000000
   0.00000000  0.25000000  0.75000000
   0.25000000  0.00000000  0.75000000
   0.25000000  0.25000000  0.50000000
   0.00000000  0.50000000  0.00000000
   0.00000000  0.75000000  0.25000000
   0.25000000  0.50000000  0.25000000
   0.25000000  0.75000000  0.00000000
   0.00000000  0.50000000  0.50000000
   0.00000000  0.75000000  0.75000000
   0.25000000  0.50000000  0.75000000
   0.25000000  0.75000000  0.50000000
   0.50000000  0.00000000  0.00000000
   0.50000000  0.25000000  0.25000000
   0.75000000  0.00000000  0.25000000
   0.75000000  0.25000000  0.00000000
   0.50000000  0.00000000  0.50000000
   0.50000000  0.25000000  0.75000000
   0.75000000  0.00000000  0.75000000
   0.75000000  0.25000000  0.50000000
   0.50000000  0.50000000  0.00000000
   0.50000000  0.75000000  0.25000000
   0.75000000  0.50000000  0.25000000
   0.75000000  0.75000000  0.00000000
   0.50000000  0.50000000  0.50000000
   0.50000000  0.75000000  0.75000000
   0.75000000  0.50000000  0.75000000
   0.75000000  0.75000000  0.50000000
