       N       E                     dE             d eps       ncg     rms          rms(c)
DAV:   1     0.672144222711E+03    0.67214E+03   -0.99583E+04  4704   0.111E+03
DAV:   2    -0.460252583670E+03   -0.11324E+04   -0.10728E+04  5816   0.221E+02
DAV:   3    -0.535802656753E+03   -0.75550E+02   -0.74837E+02  5664   0.563E+01
DAV:   4    -0.537490508420E+03   -0.16879E+01   -0.16805E+01  5704   0.909E+00
DAV:   5    -0.537537329178E+03   -0.46821E-01   -0.46740E-01  5576   0.144E+00    0.496E+01
DAV:   6    -0.480000308107E+03    0.57537E+02   -0.19230E+02  5328   0.237E+01    0.220E+01
DAV:   7    -0.478678963589E+03    0.13213E+01   -0.16338E+01  5856   0.723E+00    0.983E+00
DAV:   8    -0.478443617317E+03    0.23535E+00   -0.10703E+00  5408   0.204E+00    0.282E+00
DAV:   9    -0.478426802370E+03    0.16815E-01   -0.16305E-01  5496   0.894E-01    0.472E-01
DAV:  10    -0.478429197287E+03   -0.23949E-02   -0.15603E-02  5728   0.291E-01    0.268E-01
DAV:  11    -0.478430473161E+03   -0.12759E-02   -0.27379E-03  5264   0.132E-01    0.112E-01
DAV:  12    -0.478430608144E+03   -0.13498E-03   -0.44951E-04  6096   0.533E-02    0.462E-02
DAV:  13    -0.478430629318E+03   -0.21174E-04   -0.12962E-04  5128   0.261E-02    0.111E-02
DAV:  14    -0.478430632937E+03   -0.36186E-05   -0.65086E-06  5688   0.650E-03    0.574E-03
DAV:  15    -0.478430634575E+03   -0.16388E-05   -0.35294E-06  5592   0.414E-03    0.367E-03
DAV:  16    -0.478430634737E+03   -0.16202E-06   -0.50449E-07  5984   0.190E-03    0.126E-03
DAV:  17    -0.478430635124E+03   -0.38631E-06   -0.13733E-07  5232   0.810E-04    0.727E-04
DAV:  18    -0.478430635166E+03   -0.42604E-07   -0.67532E-09  2792   0.233E-04    0.262E-04
DAV:  19    -0.478430635171E+03   -0.46603E-08   -0.12184E-08  2736   0.247E-04
   1 F= -.47843064E+03 E0= -.47843436E+03  d E =0.111692E-01
