<?xml version="1.0" encoding="ISO-8859-1"?>
<modeling>
 <generator>
  <i name="program" type="string">vasp </i>
  <i name="version" type="string">6.2.1  </i>
  <i name="subversion" type="string">16May21 (build Jun 06 2020 10:27:25) complex                          parallel </i>
  <i name="platform" type="string">LinuxIFC </i>
  <i name="date" type="string">2024 01 25 </i>
  <i name="time" type="string">17:15:28 </i>
 </generator>
 <incar>
  <i type="int" name="NELM">    60</i>
  <i type="int" name="IBRION">     1</i>
  <i name="EDIFF">      0.00000001</i>
  <i type="int" name="NSW">     0</i>
  <i type="int" name="ISIF">     3</i>
  <i type="int" name="ISYM">     0</i>
  <i type="logical" name="LWAVE"> F  </i>
  <i type="logical" name="LCHARG"> F  </i>
  <i type="string" name="GGA">PE</i>
 </incar>
 <primitive_cell>
  <structure name="primitive_cell" >
   <crystal>
    <varray name="basis" >
     <v>       8.74331558       0.00000000       0.00000000 </v>
     <v>       0.00000000       8.74331558       0.00000000 </v>
     <v>       0.00000000       0.00000000       8.74331558 </v>
    </varray>
    <i name="volume">    668.38771987 </i>
    <varray name="rec_basis" >
     <v>       0.11437309       0.00000000       0.00000000 </v>
     <v>       0.00000000       0.11437309       0.00000000 </v>
     <v>       0.00000000       0.00000000       0.11437309 </v>
    </varray>
   </crystal>
   <varray name="positions" >
    <v>       0.12206227       0.11993360       0.12828304 </v>
    <v>       0.12290898       0.37407417       0.37541549 </v>
    <v>       0.38187272       0.12550951       0.36942192 </v>
    <v>       0.37437711       0.37986356       0.12571613 </v>
    <v>       0.11745579       0.12828560       0.62912876 </v>
    <v>       0.11858408       0.36576456       0.87328074 </v>
    <v>       0.36914482       0.12240609       0.87281252 </v>
    <v>       0.37331488       0.37085595       0.62758459 </v>
    <v>       0.12091620       0.63197628       0.12670081 </v>
    <v>       0.12030645       0.87887469       0.38025380 </v>
    <v>       0.37460769       0.62172668       0.37913710 </v>
    <v>       0.37563137       0.87433488       0.12129978 </v>
    <v>       0.11985469       0.62330692       0.62658881 </v>
    <v>       0.13062881       0.88104842       0.87578073 </v>
    <v>       0.37497350       0.62496989       0.87136762 </v>
    <v>       0.37831902       0.87791355       0.61833117 </v>
    <v>       0.62175871       0.11884877       0.12969800 </v>
    <v>       0.62219492       0.38674085       0.37986928 </v>
    <v>       0.87904805       0.12610180       0.37613031 </v>
    <v>       0.88049734       0.37229692       0.13408424 </v>
    <v>       0.63110616       0.12622842       0.63263670 </v>
    <v>       0.62177385       0.37943808       0.87874474 </v>
    <v>       0.88507294       0.12069065       0.88225363 </v>
    <v>       0.87362670       0.37771729       0.61824894 </v>
    <v>       0.62528015       0.61459515       0.12584332 </v>
    <v>       0.62012658       0.87462750       0.37894608 </v>
    <v>       0.87265578       0.63008966       0.36974865 </v>
    <v>       0.87377907       0.88095981       0.12091725 </v>
    <v>       0.62363046       0.62365847       0.63035930 </v>
    <v>       0.61873737       0.87073305       0.87476609 </v>
    <v>       0.88417550       0.62555721       0.88310585 </v>
    <v>       0.87185190       0.88073277       0.62406023 </v>
    <v>       0.99337663       0.99954031       0.99884689 </v>
    <v>       0.99808071       0.25142468       0.25014014 </v>
    <v>       0.25030181       0.99969427       0.25138172 </v>
    <v>       0.25507775       0.25224771       0.99875467 </v>
    <v>       0.00197113       0.00728570       0.50493564 </v>
    <v>       0.99577936       0.25059633       0.74667227 </v>
    <v>       0.25010902       0.99842932       0.75131682 </v>
    <v>       0.24199702       0.24016873       0.50485069 </v>
    <v>       0.99942489       0.49171761       0.99431086 </v>
    <v>       0.99746507       0.74604764       0.24350412 </v>
    <v>       0.24378522       0.49774950       0.25565337 </v>
    <v>       0.24418125       0.75493694       0.00696879 </v>
    <v>       0.00683348       0.50592155       0.49660785 </v>
    <v>       0.99837258       0.75120123       0.74352523 </v>
    <v>       0.26220804       0.49485738       0.74907886 </v>
    <v>       0.24287691       0.74719852       0.49458414 </v>
    <v>       0.49154142       0.99921440       0.00732586 </v>
    <v>       0.49847677       0.24731806       0.24955277 </v>
    <v>       0.74603220       0.00400740       0.25205638 </v>
    <v>       0.74936053       0.24754214       0.00279997 </v>
    <v>       0.49392004       0.99683280       0.50869020 </v>
    <v>       0.50049064       0.24769169       0.74287780 </v>
    <v>       0.75069389       0.99751532       0.75739776 </v>
    <v>       0.75806481       0.24416798       0.49526510 </v>
    <v>       0.50113418       0.49930171       0.00029094 </v>
    <v>       0.49809844       0.74937278       0.25287360 </v>
    <v>       0.74716058       0.49320751       0.25063951 </v>
    <v>       0.74924404       0.74719081       0.00560232 </v>
    <v>       0.49939491       0.49733430       0.49653655 </v>
    <v>       0.49632642       0.74081058       0.74941166 </v>
    <v>       0.75235225       0.50181050       0.74962770 </v>
    <v>       0.74514582       0.74764281       0.49506797 </v>
   </varray>
  </structure>
  <varray name="primitive_index" >
   <v type="int" >        1 </v>
   <v type="int" >        2 </v>
   <v type="int" >        3 </v>
   <v type="int" >        4 </v>
   <v type="int" >        5 </v>
   <v type="int" >        6 </v>
   <v type="int" >        7 </v>
   <v type="int" >        8 </v>
   <v type="int" >        9 </v>
   <v type="int" >       10 </v>
   <v type="int" >       11 </v>
   <v type="int" >       12 </v>
   <v type="int" >       13 </v>
   <v type="int" >       14 </v>
   <v type="int" >       15 </v>
   <v type="int" >       16 </v>
   <v type="int" >       17 </v>
   <v type="int" >       18 </v>
   <v type="int" >       19 </v>
   <v type="int" >       20 </v>
   <v type="int" >       21 </v>
   <v type="int" >       22 </v>
   <v type="int" >       23 </v>
   <v type="int" >       24 </v>
   <v type="int" >       25 </v>
   <v type="int" >       26 </v>
   <v type="int" >       27 </v>
   <v type="int" >       28 </v>
   <v type="int" >       29 </v>
   <v type="int" >       30 </v>
   <v type="int" >       31 </v>
   <v type="int" >       32 </v>
   <v type="int" >       33 </v>
   <v type="int" >       34 </v>
   <v type="int" >       35 </v>
   <v type="int" >       36 </v>
   <v type="int" >       37 </v>
   <v type="int" >       38 </v>
   <v type="int" >       39 </v>
   <v type="int" >       40 </v>
   <v type="int" >       41 </v>
   <v type="int" >       42 </v>
   <v type="int" >       43 </v>
   <v type="int" >       44 </v>
   <v type="int" >       45 </v>
   <v type="int" >       46 </v>
   <v type="int" >       47 </v>
   <v type="int" >       48 </v>
   <v type="int" >       49 </v>
   <v type="int" >       50 </v>
   <v type="int" >       51 </v>
   <v type="int" >       52 </v>
   <v type="int" >       53 </v>
   <v type="int" >       54 </v>
   <v type="int" >       55 </v>
   <v type="int" >       56 </v>
   <v type="int" >       57 </v>
   <v type="int" >       58 </v>
   <v type="int" >       59 </v>
   <v type="int" >       60 </v>
   <v type="int" >       61 </v>
   <v type="int" >       62 </v>
   <v type="int" >       63 </v>
   <v type="int" >       64 </v>
  </varray>
 </primitive_cell>
 <kpoints>
  <generation param="Monkhorst-Pack">
   <v type="int" name="divisions">       3        3        3 </v>
   <v name="usershift">      0.00000000       0.00000000       0.00000000 </v>
   <v name="genvec1">      0.33333333       0.00000000       0.00000000 </v>
   <v name="genvec2">      0.00000000       0.33333333       0.00000000 </v>
   <v name="genvec3">      0.00000000       0.00000000       0.33333333 </v>
   <v name="shift">      0.00000000       0.00000000       0.00000000 </v>
  </generation>
  <varray name="kpointlist" >
   <v>       0.00000000       0.00000000       0.00000000 </v>
   <v>       0.33333333       0.00000000       0.00000000 </v>
   <v>       0.00000000       0.33333333       0.00000000 </v>
   <v>       0.00000000       0.00000000       0.33333333 </v>
   <v>       0.33333333       0.33333333       0.00000000 </v>
   <v>       0.00000000       0.33333333       0.33333333 </v>
   <v>       0.33333333       0.00000000       0.33333333 </v>
   <v>      -0.33333333       0.33333333       0.00000000 </v>
   <v>      -0.33333333       0.00000000       0.33333333 </v>
   <v>       0.00000000      -0.33333333       0.33333333 </v>
   <v>       0.33333333       0.33333333       0.33333333 </v>
   <v>      -0.33333333       0.33333333       0.33333333 </v>
   <v>      -0.33333333      -0.33333333       0.33333333 </v>
   <v>       0.33333333      -0.33333333       0.33333333 </v>
  </varray>
  <varray name="weights" >
   <v>       0.03703704 </v>
   <v>       0.07407407 </v>
   <v>       0.07407407 </v>
   <v>       0.07407407 </v>
   <v>       0.07407407 </v>
   <v>       0.07407407 </v>
   <v>       0.07407407 </v>
   <v>       0.07407407 </v>
   <v>       0.07407407 </v>
   <v>       0.07407407 </v>
   <v>       0.07407407 </v>
   <v>       0.07407407 </v>
   <v>       0.07407407 </v>
   <v>       0.07407407 </v>
  </varray>
 </kpoints>
 <parameters>
  <separator name="general" >
   <i type="string" name="SYSTEM">unknown system</i>
   <i type="logical" name="LCOMPAT"> F  </i>
  </separator>
  <separator name="electronic" >
   <i type="string" name="PREC">normal</i>
   <i name="ENMAX">    400.00000000</i>
   <i name="ENAUG">    644.87300000</i>
   <i name="EDIFF">      0.00000001</i>
   <i type="int" name="IALGO">    38</i>
   <i type="int" name="IWAVPR">    10</i>
   <i type="int" name="NBANDS">   168</i>
   <i type="int" name="NBANDSLOW">    -1</i>
   <i type="int" name="NBANDSHIGH">    -1</i>
   <i name="NELECT">    256.00000000</i>
   <i type="int" name="TURBO">     0</i>
   <i type="int" name="IRESTART">     0</i>
   <i type="int" name="NREBOOT">     0</i>
   <i type="int" name="NMIN">     0</i>
   <i name="EREF">      0.00000000</i>
   <separator name="electronic smearing" >
    <i type="int" name="ISMEAR">     1</i>
    <i name="SIGMA">      0.20000000</i>
    <i name="KSPACING">      0.50000000</i>
    <i type="logical" name="KGAMMA"> T  </i>
    <i type="logical" name="KBLOWUP"> T  </i>
   </separator>
   <separator name="electronic projectors" >
    <i type="logical" name="LREAL"> F  </i>
    <v name="ROPT">      0.00000000      0.00000000</v>
    <i type="int" name="LMAXPAW">  -100</i>
    <i type="int" name="LMAXMIX">     2</i>
    <i type="logical" name="NLSPLINE"> F  </i>
   </separator>
   <separator name="electronic startup" >
    <i type="int" name="ISTART">     0</i>
    <i type="int" name="ICHARG">     2</i>
    <i type="int" name="INIWAV">     1</i>
   </separator>
   <separator name="electronic spin" >
    <i type="int" name="ISPIN">     1</i>
    <i type="logical" name="LNONCOLLINEAR"> F  </i>
    <v name="MAGMOM">      1.00000000      1.00000000      1.00000000      1.00000000      1.00000000      1.00000000      1.00000000      1.00000000      1.00000000      1.00000000      1.00000000      1.00000000      1.00000000      1.00000000      1.00000000      1.00000000      1.00000000      1.00000000      1.00000000      1.00000000
      1.00000000      1.00000000      1.00000000      1.00000000      1.00000000      1.00000000      1.00000000      1.00000000      1.00000000      1.00000000      1.00000000      1.00000000      1.00000000      1.00000000      1.00000000      1.00000000      1.00000000      1.00000000      1.00000000      1.00000000
      1.00000000      1.00000000      1.00000000      1.00000000      1.00000000      1.00000000      1.00000000      1.00000000      1.00000000      1.00000000      1.00000000      1.00000000      1.00000000      1.00000000      1.00000000      1.00000000      1.00000000      1.00000000      1.00000000      1.00000000
      1.00000000      1.00000000      1.00000000      1.00000000</v>
    <i name="NUPDOWN">     -1.00000000</i>
    <i type="logical" name="LSORBIT"> F  </i>
    <v name="SAXIS">      0.00000000      0.00000000      1.00000000</v>
    <i type="logical" name="LSPIRAL"> F  </i>
    <v name="QSPIRAL">      0.00000000      0.00000000      0.00000000</v>
    <i type="logical" name="LZEROZ"> F  </i>
   </separator>
   <separator name="electronic exchange-correlation" >
    <i type="logical" name="LASPH"> F  </i>
    <i type="logical" name="LMETAGGA"> F  </i>
   </separator>
   <separator name="electronic convergence" >
    <i type="int" name="NELM">    60</i>
    <i type="int" name="NELMDL">    -5</i>
    <i type="int" name="NELMIN">     2</i>
    <i name="ENINI">    400.00000000</i>
    <separator name="electronic convergence detail" >
     <i type="logical" name="LDIAG"> T  </i>
     <i type="logical" name="LSUBROT"> F  </i>
     <i name="WEIMIN">      0.00000000</i>
     <i name="EBREAK">      0.00000000</i>
     <i name="DEPER">      0.30000000</i>
     <i type="int" name="NRMM">     4</i>
     <i name="TIME">      0.40000000</i>
    </separator>
   </separator>
   <separator name="electronic mixer" >
    <i name="AMIX">      0.40000000</i>
    <i name="BMIX">      1.00000000</i>
    <i name="AMIN">      0.10000000</i>
    <i name="AMIX_MAG">      1.60000000</i>
    <i name="BMIX_MAG">      1.00000000</i>
    <separator name="electronic mixer details" >
     <i type="int" name="IMIX">     4</i>
     <i type="logical" name="MIXFIRST"> F  </i>
     <i type="int" name="MAXMIX">   -45</i>
     <i name="WC">    100.00000000</i>
     <i type="int" name="INIMIX">     1</i>
     <i type="int" name="MIXPRE">     1</i>
     <i type="int" name="MREMOVE">     5</i>
    </separator>
   </separator>
   <separator name="electronic dipolcorrection" >
    <i type="logical" name="LDIPOL"> F  </i>
    <i type="logical" name="LMONO"> F  </i>
    <i type="int" name="IDIPOL">     0</i>
    <i name="EPSILON">      1.00000000</i>
    <v name="DIPOL">   -100.00000000   -100.00000000   -100.00000000</v>
    <i name="EFIELD">      0.00000000</i>
   </separator>
  </separator>
  <separator name="grids" >
   <i type="int" name="NGX">    48</i>
   <i type="int" name="NGY">    48</i>
   <i type="int" name="NGZ">    48</i>
   <i type="int" name="NGXF">    96</i>
   <i type="int" name="NGYF">    96</i>
   <i type="int" name="NGZF">    96</i>
   <i type="logical" name="ADDGRID"> F  </i>
  </separator>
  <separator name="ionic" >
   <i type="int" name="NSW">     0</i>
   <i type="int" name="IBRION">    -1</i>
   <i type="int" name="MDALGO">     0</i>
   <i type="int" name="ISIF">     3</i>
   <i name="PSTRESS">      0.00000000</i>
   <i name="EDIFFG">      0.00000010</i>
   <i type="int" name="NFREE">     0</i>
   <i name="POTIM">      0.50000000</i>
   <i name="SMASS">     -3.00000000</i>
   <i name="SCALEE">      1.00000000</i>
  </separator>
  <separator name="ionic md" >
   <i name="TEBEG">      0.00010000</i>
   <i name="TEEND">      0.00010000</i>
   <i type="int" name="NBLOCK">     1</i>
   <i type="int" name="KBLOCK">     1</i>
   <i type="int" name="NPACO">   256</i>
   <i name="APACO">     16.00000000</i>
  </separator>
  <separator name="symmetry" >
   <i type="int" name="ISYM">     0</i>
   <i name="SYMPREC">      0.00001000</i>
  </separator>
  <separator name="dos" >
   <i type="int" name="LORBIT">     0</i>
   <v name="RWIGS">     -1.00000000     -1.00000000</v>
   <i type="int" name="NEDOS">   301</i>
   <i name="EMIN">     10.00000000</i>
   <i name="EMAX">    -10.00000000</i>
   <i name="EFERMI">      0.00000000</i>
  </separator>
  <separator name="writing" >
   <i type="int" name="NWRITE">     2</i>
   <i type="logical" name="LWAVE"> F  </i>
   <i type="logical" name="LDOWNSAMPLE"> F  </i>
   <i type="logical" name="LCHARG"> F  </i>
   <i type="logical" name="LPARD"> F  </i>
   <i type="logical" name="LVTOT"> F  </i>
   <i type="logical" name="LVHAR"> F  </i>
   <i type="logical" name="LELF"> F  </i>
   <i type="logical" name="LOPTICS"> F  </i>
   <v name="STM">      0.00000000      0.00000000      0.00000000      0.00000000      0.00000000      0.00000000      0.00000000</v>
  </separator>
  <separator name="performance" >
   <i type="int" name="NPAR">     8</i>
   <i type="int" name="NSIM">     4</i>
   <i type="int" name="NBLK">    -1</i>
   <i type="logical" name="LPLANE"> T  </i>
   <i type="logical" name="LSCALAPACK"> T  </i>
   <i type="logical" name="LSCAAWARE"> F  </i>
   <i type="logical" name="LSCALU"> F  </i>
   <i type="logical" name="LASYNC"> F  </i>
   <i type="logical" name="LORBITALREAL"> F  </i>
  </separator>
  <separator name="miscellaneous" >
   <i type="int" name="IDIOT">     3</i>
   <i type="int" name="PHON_NSTRUCT">    -1</i>
   <i type="logical" name="LMUSIC"> F  </i>
   <v name="POMASS">     12.01100000     28.08500000</v>
   <v name="DARWINR">      0.00000000      0.00000000</v>
   <v name="DARWINV">      1.00000000      1.00000000</v>
   <i type="logical" name="LCORR"> T  </i>
  </separator>
  <i type="logical" name="GGA_COMPAT"> T  </i>
  <i type="logical" name="LBERRY"> F  </i>
  <i type="int" name="ICORELEVEL">     0</i>
  <i type="logical" name="LDAU"> F  </i>
  <i type="int" name="I_CONSTRAINED_M">     0</i>
  <separator name="electronic exchange-correlation" >
   <i type="string" name="GGA">PE</i>
   <i type="int" name="VOSKOWN">     0</i>
   <i type="logical" name="LHFCALC"> F  </i>
   <i type="string" name="PRECFOCK"></i>
   <i type="logical" name="LSYMGRAD"> F  </i>
   <i type="logical" name="LHFONE"> F  </i>
   <i type="logical" name="LRHFCALC"> F  </i>
   <i type="logical" name="LTHOMAS"> F  </i>
   <i type="logical" name="LMODELHF"> F  </i>
   <i type="logical" name="LFOCKACE"> F  </i>
   <i name="ENCUT4O">     -1.00000000</i>
   <i type="int" name="EXXOEP">     0</i>
   <i type="int" name="FOURORBIT">     0</i>
   <i name="AEXX">      0.00000000</i>
   <i name="HFALPHA">      0.00000000</i>
   <i name="MCALPHA">      0.00000000</i>
   <i name="ALDAX">      1.00000000</i>
   <i name="AGGAX">      1.00000000</i>
   <i name="ALDAC">      1.00000000</i>
   <i name="AGGAC">      1.00000000</i>
   <i type="int" name="NKREDX">     1</i>
   <i type="int" name="NKREDY">     1</i>
   <i type="int" name="NKREDZ">     1</i>
   <i type="logical" name="SHIFTRED"> F  </i>
   <i type="logical" name="ODDONLY"> F  </i>
   <i type="logical" name="EVENONLY"> F  </i>
   <i type="int" name="LMAXFOCK">     0</i>
   <i type="int" name="NMAXFOCKAE">     0</i>
   <i type="logical" name="LFOCKAEDFT"> F  </i>
   <i name="HFSCREEN">      0.00000000</i>
   <i name="HFSCREENC">      0.00000000</i>
   <i type="int" name="NBANDSGWLOW">     0</i>
  </separator>
  <separator name="vdW DFT" >
   <i type="logical" name="LUSE_VDW"> F  </i>
   <i name="Zab_VDW">     -0.84910000</i>
   <i name="PARAM1">      0.12340000</i>
   <i name="PARAM2">      1.00000000</i>
   <i name="PARAM3">      0.00000000</i>
  </separator>
  <separator name="model GW" >
   <i type="int" name="MODEL_GW">     0</i>
   <i name="MODEL_EPS0">      6.26613487</i>
   <i name="MODEL_ALPHA">      1.00000000</i>
  </separator>
  <separator name="linear response parameters" >
   <i type="logical" name="LEPSILON"> F  </i>
   <i type="logical" name="LRPA"> F  </i>
   <i type="logical" name="LNABLA"> F  </i>
   <i type="logical" name="LVEL"> F  </i>
   <i type="int" name="KINTER">     0</i>
   <i name="CSHIFT">      0.10000000</i>
   <i name="OMEGAMAX">     -1.00000000</i>
   <i name="DEG_THRESHOLD">      0.00200000</i>
   <i name="RTIME">     -0.10000000</i>
   <i name="WPLASMAI">      0.00000000</i>
   <v name="DFIELD">      0.00000000      0.00000000      0.00000000</v>
   <v name="WPLASMA">      0.00000000      0.00000000      0.00000000      0.00000000      0.00000000      0.00000000      0.00000000      0.00000000      0.00000000</v>
  </separator>
  <separator name="orbital magnetization" >
   <i type="logical" name="NUCIND"> F  </i>
   <v name="MAGPOS">      0.00000000      0.00000000      0.00000000</v>
   <i type="logical" name="LNICSALL"> T  </i>
   <i type="logical" name="ORBITALMAG"> F  </i>
   <i type="logical" name="LMAGBLOCH"> F  </i>
   <i type="logical" name="LCHIMAG"> F  </i>
   <i type="logical" name="LGAUGE"> T  </i>
   <i type="int" name="MAGATOM">     0</i>
   <v name="MAGDIPOL">      0.00000000      0.00000000      0.00000000</v>
   <v name="AVECCONST">      0.00000000      0.00000000      0.00000000</v>
  </separator>
  <separator name="response functions" >
   <i type="logical" name="LFINITE_TEMPERATURE"> F  </i>
   <i type="logical" name="LADDER"> F  </i>
   <i type="logical" name="LRPAFORCE"> F  </i>
   <i type="logical" name="LFXC"> F  </i>
   <i type="logical" name="LHARTREE"> T  </i>
   <i type="int" name="IBSE">     0</i>
   <v type="int" name="KPOINT">    -1     0     0     0</v>
   <i type="logical" name="LTCTC"> F  </i>
   <i type="logical" name="LTCTE"> F  </i>
   <i type="logical" name="LTETE"> F  </i>
   <i type="logical" name="LTRIPLET"> F  </i>
   <i type="logical" name="LFXCEPS"> F  </i>
   <i type="logical" name="LFXHEG"> F  </i>
   <i type="int" name="NATURALO">     2</i>
   <i type="logical" name="LHOLEGF"> F  </i>
   <i type="logical" name="L2ORDER"> F  </i>
   <i type="logical" name="LDMP1"> F  </i>
   <i type="logical" name="LMP2LT"> F  </i>
   <i type="logical" name="LSMP2LT"> F  </i>
   <i type="logical" name="LGWLF"> F  </i>
   <i name="ENCUTGW">     -2.00000000</i>
   <i name="ENCUTGWSOFT">     -2.00000000</i>
   <i name="ENCUTLF">     -1.00000000</i>
   <i type="logical" name="LESF_SPLINES"> F  </i>
   <i type="int" name="LMAXMP2">    -1</i>
   <i name="SCISSOR">      0.00000000</i>
   <i type="int" name="NOMEGA">     0</i>
   <i type="int" name="NOMEGAR">     0</i>
   <i type="int" name="NBANDSGW">    -1</i>
   <i type="int" name="NBANDSO">    -1</i>
   <i type="int" name="NBANDSV">    -1</i>
   <i type="int" name="NELM">    60</i>
   <i type="int" name="NELMHF">     1</i>
   <i type="int" name="DIM">     3</i>
   <i type="int" name="IESPILON">     4</i>
   <i type="int" name="ANTIRES">     0</i>
   <i name="OMEGAMAX">    -30.00000000</i>
   <i name="OMEGAMIN">    -30.00000000</i>
   <i name="OMEGATL">   -200.00000000</i>
   <i type="int" name="OMEGAGRID">     0</i>
   <i name="CSHIFT">     -0.10000000</i>
   <i type="logical" name="LSELFENERGY"> F  </i>
   <i type="logical" name="LSPECTRAL"> F  </i>
   <i type="logical" name="LSPECTRALGW"> F  </i>
   <i type="logical" name="LSINGLES"> F  </i>
   <i type="logical" name="LFERMIGW"> F  </i>
   <i type="logical" name="ODDONLYGW"> F  </i>
   <i type="logical" name="EVENONLYGW"> F  </i>
   <i type="int" name="NKREDLFX">     1</i>
   <i type="int" name="NKREDLFY">     1</i>
   <i type="int" name="NKREDLFZ">     1</i>
   <i type="int" name="MAXMEM">  2800</i>
   <i type="int" name="TELESCOPE">     0</i>
   <i type="int" name="NTAUPAR">    -1</i>
   <i type="int" name="NOMEGAPAR">    -1</i>
   <i name="DAMP_NEWTON">      0.80000001</i>
   <i name="LAMBDA">      1.00000000</i>
  </separator>
  <separator name="External order field" >
   <i name="OFIELD_KAPPA">      0.00000000</i>
   <v name="OFIELD_K">      0.00000000      0.00000000      0.00000000</v>
   <i name="OFIELD_Q6_NEAR">      0.00000000</i>
   <i name="OFIELD_Q6_FAR">      0.00000000</i>
   <i name="OFIELD_A">      0.00000000</i>
  </separator>
 </parameters>
 <atominfo>
  <atoms>      64 </atoms>
  <types>       2 </types>
  <array name="atoms" >
   <dimension dim="1">ion</dimension>
   <field type="string">element</field>
   <field type="int">atomtype</field>
   <set>
    <rc><c>C </c><c>   1</c></rc>
    <rc><c>C </c><c>   1</c></rc>
    <rc><c>C </c><c>   1</c></rc>
    <rc><c>C </c><c>   1</c></rc>
    <rc><c>C </c><c>   1</c></rc>
    <rc><c>C </c><c>   1</c></rc>
    <rc><c>C </c><c>   1</c></rc>
    <rc><c>C </c><c>   1</c></rc>
    <rc><c>C </c><c>   1</c></rc>
    <rc><c>C </c><c>   1</c></rc>
    <rc><c>C </c><c>   1</c></rc>
    <rc><c>C </c><c>   1</c></rc>
    <rc><c>C </c><c>   1</c></rc>
    <rc><c>C </c><c>   1</c></rc>
    <rc><c>C </c><c>   1</c></rc>
    <rc><c>C </c><c>   1</c></rc>
    <rc><c>C </c><c>   1</c></rc>
    <rc><c>C </c><c>   1</c></rc>
    <rc><c>C </c><c>   1</c></rc>
    <rc><c>C </c><c>   1</c></rc>
    <rc><c>C </c><c>   1</c></rc>
    <rc><c>C </c><c>   1</c></rc>
    <rc><c>C </c><c>   1</c></rc>
    <rc><c>C </c><c>   1</c></rc>
    <rc><c>C </c><c>   1</c></rc>
    <rc><c>C </c><c>   1</c></rc>
    <rc><c>C </c><c>   1</c></rc>
    <rc><c>C </c><c>   1</c></rc>
    <rc><c>C </c><c>   1</c></rc>
    <rc><c>C </c><c>   1</c></rc>
    <rc><c>C </c><c>   1</c></rc>
    <rc><c>C </c><c>   1</c></rc>
    <rc><c>Si</c><c>   2</c></rc>
    <rc><c>Si</c><c>   2</c></rc>
    <rc><c>Si</c><c>   2</c></rc>
    <rc><c>Si</c><c>   2</c></rc>
    <rc><c>Si</c><c>   2</c></rc>
    <rc><c>Si</c><c>   2</c></rc>
    <rc><c>Si</c><c>   2</c></rc>
    <rc><c>Si</c><c>   2</c></rc>
    <rc><c>Si</c><c>   2</c></rc>
    <rc><c>Si</c><c>   2</c></rc>
    <rc><c>Si</c><c>   2</c></rc>
    <rc><c>Si</c><c>   2</c></rc>
    <rc><c>Si</c><c>   2</c></rc>
    <rc><c>Si</c><c>   2</c></rc>
    <rc><c>Si</c><c>   2</c></rc>
    <rc><c>Si</c><c>   2</c></rc>
    <rc><c>Si</c><c>   2</c></rc>
    <rc><c>Si</c><c>   2</c></rc>
    <rc><c>Si</c><c>   2</c></rc>
    <rc><c>Si</c><c>   2</c></rc>
    <rc><c>Si</c><c>   2</c></rc>
    <rc><c>Si</c><c>   2</c></rc>
    <rc><c>Si</c><c>   2</c></rc>
    <rc><c>Si</c><c>   2</c></rc>
    <rc><c>Si</c><c>   2</c></rc>
    <rc><c>Si</c><c>   2</c></rc>
    <rc><c>Si</c><c>   2</c></rc>
    <rc><c>Si</c><c>   2</c></rc>
    <rc><c>Si</c><c>   2</c></rc>
    <rc><c>Si</c><c>   2</c></rc>
    <rc><c>Si</c><c>   2</c></rc>
    <rc><c>Si</c><c>   2</c></rc>
   </set>
  </array>
  <array name="atomtypes" >
   <dimension dim="1">type</dimension>
   <field type="int">atomspertype</field>
   <field type="string">element</field>
   <field>mass</field>
   <field>valence</field>
   <field type="string">pseudopotential</field>
   <set>
    <rc><c>  32</c><c>C </c><c>     12.01100000</c><c>      4.00000000</c><c>  PAW_PBE C 08Apr2002                   </c></rc>
    <rc><c>  32</c><c>Si</c><c>     28.08500000</c><c>      4.00000000</c><c>  PAW_PBE Si 05Jan2001                  </c></rc>
   </set>
  </array>
 </atominfo>
 <structure name="initialpos" >
  <crystal>
   <varray name="basis" >
    <v>       8.74331558       0.00000000       0.00000000 </v>
    <v>       0.00000000       8.74331558       0.00000000 </v>
    <v>       0.00000000       0.00000000       8.74331558 </v>
   </varray>
   <i name="volume">    668.38771987 </i>
   <varray name="rec_basis" >
    <v>       0.11437309       0.00000000       0.00000000 </v>
    <v>       0.00000000       0.11437309       0.00000000 </v>
    <v>       0.00000000       0.00000000       0.11437309 </v>
   </varray>
  </crystal>
  <varray name="positions" >
   <v>       0.12206227       0.11993360       0.12828304 </v>
   <v>       0.12290898       0.37407417       0.37541549 </v>
   <v>       0.38187272       0.12550951       0.36942192 </v>
   <v>       0.37437711       0.37986356       0.12571613 </v>
   <v>       0.11745579       0.12828560       0.62912876 </v>
   <v>       0.11858408       0.36576456       0.87328074 </v>
   <v>       0.36914482       0.12240609       0.87281252 </v>
   <v>       0.37331488       0.37085595       0.62758459 </v>
   <v>       0.12091620       0.63197628       0.12670081 </v>
   <v>       0.12030645       0.87887469       0.38025380 </v>
   <v>       0.37460769       0.62172668       0.37913710 </v>
   <v>       0.37563137       0.87433488       0.12129978 </v>
   <v>       0.11985469       0.62330692       0.62658881 </v>
   <v>       0.13062881       0.88104842       0.87578073 </v>
   <v>       0.37497350       0.62496989       0.87136762 </v>
   <v>       0.37831902       0.87791355       0.61833117 </v>
   <v>       0.62175871       0.11884877       0.12969800 </v>
   <v>       0.62219492       0.38674085       0.37986928 </v>
   <v>       0.87904805       0.12610180       0.37613031 </v>
   <v>       0.88049734       0.37229692       0.13408424 </v>
   <v>       0.63110616       0.12622842       0.63263670 </v>
   <v>       0.62177385       0.37943808       0.87874474 </v>
   <v>       0.88507294       0.12069065       0.88225363 </v>
   <v>       0.87362670       0.37771729       0.61824894 </v>
   <v>       0.62528015       0.61459515       0.12584332 </v>
   <v>       0.62012658       0.87462750       0.37894608 </v>
   <v>       0.87265578       0.63008966       0.36974865 </v>
   <v>       0.87377907       0.88095981       0.12091725 </v>
   <v>       0.62363046       0.62365847       0.63035930 </v>
   <v>       0.61873737       0.87073305       0.87476609 </v>
   <v>       0.88417550       0.62555721       0.88310585 </v>
   <v>       0.87185190       0.88073277       0.62406023 </v>
   <v>       0.99337663       0.99954031       0.99884689 </v>
   <v>       0.99808071       0.25142468       0.25014014 </v>
   <v>       0.25030181       0.99969427       0.25138172 </v>
   <v>       0.25507775       0.25224771       0.99875467 </v>
   <v>       0.00197113       0.00728570       0.50493564 </v>
   <v>       0.99577936       0.25059633       0.74667227 </v>
   <v>       0.25010902       0.99842932       0.75131682 </v>
   <v>       0.24199702       0.24016873       0.50485069 </v>
   <v>       0.99942489       0.49171761       0.99431086 </v>
   <v>       0.99746507       0.74604764       0.24350412 </v>
   <v>       0.24378522       0.49774950       0.25565337 </v>
   <v>       0.24418125       0.75493694       0.00696879 </v>
   <v>       0.00683348       0.50592155       0.49660785 </v>
   <v>       0.99837258       0.75120123       0.74352523 </v>
   <v>       0.26220804       0.49485738       0.74907886 </v>
   <v>       0.24287691       0.74719852       0.49458414 </v>
   <v>       0.49154142       0.99921440       0.00732586 </v>
   <v>       0.49847677       0.24731806       0.24955277 </v>
   <v>       0.74603220       0.00400740       0.25205638 </v>
   <v>       0.74936053       0.24754214       0.00279997 </v>
   <v>       0.49392004       0.99683280       0.50869020 </v>
   <v>       0.50049064       0.24769169       0.74287780 </v>
   <v>       0.75069389       0.99751532       0.75739776 </v>
   <v>       0.75806481       0.24416798       0.49526510 </v>
   <v>       0.50113418       0.49930171       0.00029094 </v>
   <v>       0.49809844       0.74937278       0.25287360 </v>
   <v>       0.74716058       0.49320751       0.25063951 </v>
   <v>       0.74924404       0.74719081       0.00560232 </v>
   <v>       0.49939491       0.49733430       0.49653655 </v>
   <v>       0.49632642       0.74081058       0.74941166 </v>
   <v>       0.75235225       0.50181050       0.74962770 </v>
   <v>       0.74514582       0.74764281       0.49506797 </v>
  </varray>
 </structure>
 <calculation>
  <scstep>
   <time name="dav">   18.20   18.51</time>
   <time name="total">   18.62   18.93</time>
   <energy>
    <i name="alphaZ">    354.85177120 </i>
    <i name="ewald">  -9071.63514660 </i>
    <i name="hartreedc">   -676.12990362 </i>
    <i name="XCdc">    145.92877949 </i>
    <i name="pawpsdc">   6292.66707184 </i>
    <i name="pawaedc">  -5747.90303932 </i>
    <i name="eentropy">     -0.00035855 </i>
    <i name="bandstr">   1368.19000507 </i>
    <i name="atom">   8006.17504320 </i>
    <i name="e_fr_energy">    672.14422271 </i>
    <i name="e_wo_entrp">    672.14458126 </i>
    <i name="e_0_energy">    672.14434223 </i>
   </energy>
  </scstep>
  <scstep>
   <time name="dav">   18.85   18.94</time>
   <time name="total">   18.86   18.95</time>
   <energy>
    <i name="e_fr_energy">   -460.25258367 </i>
    <i name="e_wo_entrp">   -460.26172075 </i>
    <i name="e_0_energy">   -460.25562936 </i>
   </energy>
  </scstep>
  <scstep>
   <time name="dav">   17.55   17.63</time>
   <time name="total">   17.56   17.64</time>
   <energy>
    <i name="e_fr_energy">   -535.80265675 </i>
    <i name="e_wo_entrp">   -535.82542914 </i>
    <i name="e_0_energy">   -535.81024755 </i>
   </energy>
  </scstep>
  <scstep>
   <time name="dav">   21.60   21.68</time>
   <time name="total">   21.60   21.69</time>
   <energy>
    <i name="e_fr_energy">   -537.49050842 </i>
    <i name="e_wo_entrp">   -537.51407295 </i>
    <i name="e_0_energy">   -537.49836326 </i>
   </energy>
  </scstep>
  <scstep>
   <time name="dav">   18.32   18.85</time>
   <time name="total">   18.59   19.12</time>
   <energy>
    <i name="e_fr_energy">   -537.53732918 </i>
    <i name="e_wo_entrp">   -537.56084112 </i>
    <i name="e_0_energy">   -537.54516649 </i>
   </energy>
  </scstep>
  <scstep>
   <time name="dav">   17.23   17.30</time>
   <time name="total">   17.79   17.87</time>
   <energy>
    <i name="e_fr_energy">   -480.00030811 </i>
    <i name="e_wo_entrp">   -480.01266073 </i>
    <i name="e_0_energy">   -480.00442565 </i>
   </energy>
  </scstep>
  <scstep>
   <time name="dav">   17.26   17.30</time>
   <time name="total">   17.92   17.99</time>
   <energy>
    <i name="e_fr_energy">   -478.67896359 </i>
    <i name="e_wo_entrp">   -478.68999813 </i>
    <i name="e_0_energy">   -478.68264177 </i>
   </energy>
  </scstep>
  <scstep>
   <time name="dav">   16.16   16.23</time>
   <time name="total">   16.57   16.68</time>
   <energy>
    <i name="e_fr_energy">   -478.44361732 </i>
    <i name="e_wo_entrp">   -478.45492612 </i>
    <i name="e_0_energy">   -478.44738692 </i>
   </energy>
  </scstep>
  <scstep>
   <time name="dav">   16.14   16.21</time>
   <time name="total">   16.49   16.55</time>
   <energy>
    <i name="e_fr_energy">   -478.42680237 </i>
    <i name="e_wo_entrp">   -478.43797665 </i>
    <i name="e_0_energy">   -478.43052713 </i>
   </energy>
  </scstep>
  <scstep>
   <time name="dav">   15.89   15.96</time>
   <time name="total">   16.26   16.36</time>
   <energy>
    <i name="e_fr_energy">   -478.42919729 </i>
    <i name="e_wo_entrp">   -478.44036522 </i>
    <i name="e_0_energy">   -478.43291993 </i>
   </energy>
  </scstep>
  <scstep>
   <time name="dav">   15.02   15.05</time>
   <time name="total">   15.40   15.48</time>
   <energy>
    <i name="e_fr_energy">   -478.43047316 </i>
    <i name="e_wo_entrp">   -478.44164398 </i>
    <i name="e_0_energy">   -478.43419677 </i>
   </energy>
  </scstep>
  <scstep>
   <time name="dav">   16.88   16.91</time>
   <time name="total">   17.29   17.44</time>
   <energy>
    <i name="e_fr_energy">   -478.43060814 </i>
    <i name="e_wo_entrp">   -478.44177588 </i>
    <i name="e_0_energy">   -478.43433072 </i>
   </energy>
  </scstep>
  <scstep>
   <time name="dav">   17.41   17.44</time>
   <time name="total">   17.77   17.80</time>
   <energy>
    <i name="e_fr_energy">   -478.43062932 </i>
    <i name="e_wo_entrp">   -478.44179885 </i>
    <i name="e_0_energy">   -478.43435250 </i>
   </energy>
  </scstep>
  <scstep>
   <time name="dav">   15.75   15.82</time>
   <time name="total">   16.17   16.25</time>
   <energy>
    <i name="e_fr_energy">   -478.43063294 </i>
    <i name="e_wo_entrp">   -478.44180228 </i>
    <i name="e_0_energy">   -478.43435605 </i>
   </energy>
  </scstep>
  <scstep>
   <time name="dav">   22.17   22.21</time>
   <time name="total">   22.82   22.86</time>
   <energy>
    <i name="e_fr_energy">   -478.43063458 </i>
    <i name="e_wo_entrp">   -478.44180385 </i>
    <i name="e_0_energy">   -478.43435767 </i>
   </energy>
  </scstep>
  <scstep>
   <time name="dav">   16.53   16.57</time>
   <time name="total">   17.10   17.17</time>
   <energy>
    <i name="e_fr_energy">   -478.43063474 </i>
    <i name="e_wo_entrp">   -478.44180405 </i>
    <i name="e_0_energy">   -478.43435784 </i>
   </energy>
  </scstep>
  <scstep>
   <time name="dav">   14.65   14.68</time>
   <time name="total">   15.00   15.04</time>
   <energy>
    <i name="e_fr_energy">   -478.43063512 </i>
    <i name="e_wo_entrp">   -478.44180435 </i>
    <i name="e_0_energy">   -478.43435820 </i>
   </energy>
  </scstep>
  <scstep>
   <time name="dav">    9.50    9.56</time>
   <time name="total">    9.86    9.93</time>
   <energy>
    <i name="e_fr_energy">   -478.43063517 </i>
    <i name="e_wo_entrp">   -478.44180439 </i>
    <i name="e_0_energy">   -478.43435824 </i>
   </energy>
  </scstep>
  <scstep>
   <time name="dav">    9.39    9.44</time>
   <time name="total">    9.46    9.53</time>
   <energy>
    <i name="alphaZ">    354.85177120 </i>
    <i name="ewald">  -9071.63514660 </i>
    <i name="hartreedc">  -1030.34337344 </i>
    <i name="XCdc">    179.41855320 </i>
    <i name="pawpsdc">  33297.28270807 </i>
    <i name="pawaedc"> -32758.30799907 </i>
    <i name="eentropy">      0.01116922 </i>
    <i name="bandstr">    544.11663904 </i>
    <i name="atom">   8006.17504320 </i>
    <i name="e_fr_energy">   -478.43063517 </i>
    <i name="e_wo_entrp">   -478.44180439 </i>
    <i name="e_0_energy">   -478.43435824 </i>
   </energy>
  </scstep>
  <structure>
   <crystal>
    <varray name="basis" >
     <v>       8.74331558       0.00000000       0.00000000 </v>
     <v>       0.00000000       8.74331558       0.00000000 </v>
     <v>       0.00000000       0.00000000       8.74331558 </v>
    </varray>
    <i name="volume">    668.38771987 </i>
    <varray name="rec_basis" >
     <v>       0.11437309       0.00000000       0.00000000 </v>
     <v>       0.00000000       0.11437309       0.00000000 </v>
     <v>       0.00000000       0.00000000       0.11437309 </v>
    </varray>
   </crystal>
   <varray name="positions" >
    <v>       0.12206227       0.11993360       0.12828304 </v>
    <v>       0.12290898       0.37407417       0.37541549 </v>
    <v>       0.38187272       0.12550951       0.36942192 </v>
    <v>       0.37437711       0.37986356       0.12571613 </v>
    <v>       0.11745579       0.12828560       0.62912876 </v>
    <v>       0.11858408       0.36576456       0.87328074 </v>
    <v>       0.36914482       0.12240609       0.87281252 </v>
    <v>       0.37331488       0.37085595       0.62758459 </v>
    <v>       0.12091620       0.63197628       0.12670081 </v>
    <v>       0.12030645       0.87887469       0.38025380 </v>
    <v>       0.37460769       0.62172668       0.37913710 </v>
    <v>       0.37563137       0.87433488       0.12129978 </v>
    <v>       0.11985469       0.62330692       0.62658881 </v>
    <v>       0.13062881       0.88104842       0.87578073 </v>
    <v>       0.37497350       0.62496989       0.87136762 </v>
    <v>       0.37831902       0.87791355       0.61833117 </v>
    <v>       0.62175871       0.11884877       0.12969800 </v>
    <v>       0.62219492       0.38674085       0.37986928 </v>
    <v>       0.87904805       0.12610180       0.37613031 </v>
    <v>       0.88049734       0.37229692       0.13408424 </v>
    <v>       0.63110616       0.12622842       0.63263670 </v>
    <v>       0.62177385       0.37943808       0.87874474 </v>
    <v>       0.88507294       0.12069065       0.88225363 </v>
    <v>       0.87362670       0.37771729       0.61824894 </v>
    <v>       0.62528015       0.61459515       0.12584332 </v>
    <v>       0.62012658       0.87462750       0.37894608 </v>
    <v>       0.87265578       0.63008966       0.36974865 </v>
    <v>       0.87377907       0.88095981       0.12091725 </v>
    <v>       0.62363046       0.62365847       0.63035930 </v>
    <v>       0.61873737       0.87073305       0.87476609 </v>
    <v>       0.88417550       0.62555721       0.88310585 </v>
    <v>       0.87185190       0.88073277       0.62406023 </v>
    <v>       0.99337663       0.99954031       0.99884689 </v>
    <v>       0.99808071       0.25142468       0.25014014 </v>
    <v>       0.25030181       0.99969427       0.25138172 </v>
    <v>       0.25507775       0.25224771       0.99875467 </v>
    <v>       0.00197113       0.00728570       0.50493564 </v>
    <v>       0.99577936       0.25059633       0.74667227 </v>
    <v>       0.25010902       0.99842932       0.75131682 </v>
    <v>       0.24199702       0.24016873       0.50485069 </v>
    <v>       0.99942489       0.49171761       0.99431086 </v>
    <v>       0.99746507       0.74604764       0.24350412 </v>
    <v>       0.24378522       0.49774950       0.25565337 </v>
    <v>       0.24418125       0.75493694       0.00696879 </v>
    <v>       0.00683348       0.50592155       0.49660785 </v>
    <v>       0.99837258       0.75120123       0.74352523 </v>
    <v>       0.26220804       0.49485738       0.74907886 </v>
    <v>       0.24287691       0.74719852       0.49458414 </v>
    <v>       0.49154142       0.99921440       0.00732586 </v>
    <v>       0.49847677       0.24731806       0.24955277 </v>
    <v>       0.74603220       0.00400740       0.25205638 </v>
    <v>       0.74936053       0.24754214       0.00279997 </v>
    <v>       0.49392004       0.99683280       0.50869020 </v>
    <v>       0.50049064       0.24769169       0.74287780 </v>
    <v>       0.75069389       0.99751532       0.75739776 </v>
    <v>       0.75806481       0.24416798       0.49526510 </v>
    <v>       0.50113418       0.49930171       0.00029094 </v>
    <v>       0.49809844       0.74937278       0.25287360 </v>
    <v>       0.74716058       0.49320751       0.25063951 </v>
    <v>       0.74924404       0.74719081       0.00560232 </v>
    <v>       0.49939491       0.49733430       0.49653655 </v>
    <v>       0.49632642       0.74081058       0.74941166 </v>
    <v>       0.75235225       0.50181050       0.74962770 </v>
    <v>       0.74514582       0.74764281       0.49506797 </v>
   </varray>
  </structure>
  <varray name="forces" >
   <v>       0.58365532       0.92309844      -0.30094405 </v>
   <v>       0.21442302      -0.42816892       0.46473642 </v>
   <v>      -1.68659081      -0.64113676       2.00030406 </v>
   <v>      -0.24331317      -0.67999129       0.00459243 </v>
   <v>       1.22047643      -0.99524181      -0.03062454 </v>
   <v>       1.73065222       1.26102451       0.00836676 </v>
   <v>       1.53149603       0.72023271       0.35409778 </v>
   <v>       0.41990603      -0.43975253      -1.63587341 </v>
   <v>       0.86484617      -2.27057138      -0.47761415 </v>
   <v>       0.38658378      -0.54259568      -1.07779144 </v>
   <v>      -0.71479460       0.40636445      -0.70025031 </v>
   <v>      -0.76463060      -0.66375837       1.94434866 </v>
   <v>       1.79182549       0.12197025      -0.14934173 </v>
   <v>      -1.55694233      -1.20565180      -0.14952821 </v>
   <v>      -0.70455729      -0.33876881       1.55984570 </v>
   <v>      -2.37920827      -1.98334164       1.99812017 </v>
   <v>      -0.03745255       1.38969752      -0.75307123 </v>
   <v>       0.95452713      -3.57498483      -1.21942120 </v>
   <v>      -0.49395716      -0.42377538      -0.67823545 </v>
   <v>      -1.58024312       0.37781261      -1.80168955 </v>
   <v>      -0.31679934      -0.49404617      -1.39184185 </v>
   <v>       0.99781373      -1.44068926      -0.86628311 </v>
   <v>      -2.89137400       1.76713682      -1.89970046 </v>
   <v>       0.50855692      -0.12122154       0.65202923 </v>
   <v>      -0.11502498       1.67524083       0.36131867 </v>
   <v>       0.24770638       0.32051450      -0.54555359 </v>
   <v>       0.14221781      -1.08281724       0.38948950 </v>
   <v>      -0.81193404      -1.07484597       1.17612317 </v>
   <v>       0.19839380      -0.29727470      -1.34574906 </v>
   <v>       0.36843225       0.14678441       0.79411200 </v>
   <v>      -1.54923373       0.15392479      -1.57614571 </v>
   <v>       0.10979919      -0.89548685      -0.09077918 </v>
   <v>       2.75055119      -0.48140415       0.97368943 </v>
   <v>       1.34116852      -1.18342711       0.29877235 </v>
   <v>      -0.40953023      -0.10327171      -0.03654682 </v>
   <v>      -1.61812043      -0.83349364       0.43622807 </v>
   <v>      -0.97209926      -1.53724451      -0.61476265 </v>
   <v>      -0.43979116       0.25849796       0.66195763 </v>
   <v>      -0.03821871       0.08782317      -0.58438021 </v>
   <v>       1.47061188       1.61625525      -1.23322841 </v>
   <v>       0.59455947       0.84725395       1.41347888 </v>
   <v>      -0.79648358       2.23772798       1.22861593 </v>
   <v>       0.95096051       0.64838571      -1.07260773 </v>
   <v>       0.72856092      -0.72627678      -1.76359912 </v>
   <v>      -1.91078448      -0.73198739       0.03140297 </v>
   <v>       0.29897325       0.43663050       1.53435915 </v>
   <v>      -3.00767908       0.60085697       0.65703343 </v>
   <v>       0.73745748       0.64625815       1.13159364 </v>
   <v>       1.35094337       0.01886681      -2.22215836 </v>
   <v>       0.48787918       1.69698991       0.11272758 </v>
   <v>       0.86755937      -1.38898845       0.46539120 </v>
   <v>       0.18067663       0.10537403      -0.06344018 </v>
   <v>       2.36734930       1.65753748      -1.90667772 </v>
   <v>       0.21818254       0.21312395       1.95590417 </v>
   <v>      -0.25646230      -0.03070954      -0.04073007 </v>
   <v>      -1.89419649       1.63890759       1.24393591 </v>
   <v>      -0.74097599       0.47378812      -0.01519864 </v>
   <v>       0.24736672      -0.48700818      -0.48708958 </v>
   <v>       0.81820492       1.20852381       0.16984944 </v>
   <v>      -0.24456483       0.19922863      -0.76793152 </v>
   <v>      -0.56957964       0.72328747       2.01342352 </v>
   <v>       0.51346525       2.13426361      -0.17143996 </v>
   <v>       0.02200778      -0.19514472       0.52975350 </v>
   <v>       0.52675216       0.57969419       1.10462779 </v>
  </varray>
  <varray name="stress" >
   <v>      14.04277973      -4.98530913     -11.72574035 </v>
   <v>      -4.98530917      14.24630396      -4.52830653 </v>
   <v>     -11.72574040      -4.52830652      13.54178445 </v>
  </varray>
  <energy>
   <i name="e_fr_energy">   -478.43063517 </i>
   <i name="e_wo_entrp">   -478.44180439 </i>
   <i name="e_0_energy">   -478.43435824 </i>
  </energy>
  <time name="totalsc">  332.87  335.08</time>
  <eigenvalues>
   <array>
    <dimension dim="1">band</dimension>
    <dimension dim="2">kpoint</dimension>
    <dimension dim="3">spin</dimension>
    <field>eigene</field>
    <field>occ</field>
    <set>
     <set comment="spin 1">
      <set comment="kpoint 1">
       <r>   -7.3660    1.0000 </r>
       <r>   -5.9313    1.0000 </r>
       <r>   -5.8598    1.0000 </r>
       <r>   -5.8261    1.0000 </r>
       <r>   -5.7400    1.0000 </r>
       <r>   -5.7227    1.0000 </r>
       <r>   -5.6474    1.0000 </r>
       <r>   -4.5802    1.0000 </r>
       <r>   -4.5417    1.0000 </r>
       <r>   -4.4719    1.0000 </r>
       <r>   -4.4623    1.0000 </r>
       <r>   -4.4171    1.0000 </r>
       <r>   -4.3894    1.0000 </r>
       <r>   -4.3288    1.0000 </r>
       <r>   -4.3155    1.0000 </r>
       <r>   -4.2725    1.0000 </r>
       <r>   -4.2371    1.0000 </r>
       <r>   -4.1917    1.0000 </r>
       <r>   -4.1413    1.0000 </r>
       <r>   -3.8722    1.0000 </r>
       <r>   -3.8356    1.0000 </r>
       <r>   -3.8162    1.0000 </r>
       <r>   -3.6562    1.0000 </r>
       <r>   -2.4308    1.0000 </r>
       <r>   -2.4017    1.0000 </r>
       <r>   -2.3678    1.0000 </r>
       <r>   -2.2709    1.0000 </r>
       <r>   -2.2178    1.0000 </r>
       <r>   -2.1351    1.0000 </r>
       <r>   -2.0953    1.0000 </r>
       <r>   -2.0437    1.0000 </r>
       <r>   -2.0028    1.0000 </r>
       <r>   -0.5949    1.0000 </r>
       <r>   -0.4939    1.0000 </r>
       <r>   -0.4830    1.0000 </r>
       <r>   -0.4192    1.0000 </r>
       <r>    0.1827    1.0000 </r>
       <r>    0.2098    1.0000 </r>
       <r>    0.2956    1.0000 </r>
       <r>    0.8481    1.0000 </r>
       <r>    0.9327    1.0000 </r>
       <r>    0.9546    1.0000 </r>
       <r>    0.9932    1.0000 </r>
       <r>    1.0265    1.0000 </r>
       <r>    1.0593    1.0000 </r>
       <r>    1.8676    1.0000 </r>
       <r>    1.8940    1.0000 </r>
       <r>    1.9309    1.0000 </r>
       <r>    1.9867    1.0000 </r>
       <r>    2.0152    1.0000 </r>
       <r>    2.0539    1.0000 </r>
       <r>    2.1027    1.0000 </r>
       <r>    2.1122    1.0000 </r>
       <r>    2.1640    1.0000 </r>
       <r>    2.1803    1.0000 </r>
       <r>    2.2166    1.0000 </r>
       <r>    2.2487    1.0000 </r>
       <r>    2.9192    1.0000 </r>
       <r>    2.9776    1.0000 </r>
       <r>    2.9927    1.0000 </r>
       <r>    3.0193    1.0000 </r>
       <r>    3.0563    1.0000 </r>
       <r>    3.1256    1.0000 </r>
       <r>    3.2735    1.0000 </r>
       <r>    3.2757    1.0000 </r>
       <r>    3.3203    1.0000 </r>
       <r>    3.3428    1.0000 </r>
       <r>    3.3657    1.0000 </r>
       <r>    3.3929    1.0000 </r>
       <r>    3.5541    1.0000 </r>
       <r>    3.5840    1.0000 </r>
       <r>    3.5950    1.0000 </r>
       <r>    3.6352    1.0000 </r>
       <r>    3.6606    1.0000 </r>
       <r>    3.6955    1.0000 </r>
       <r>    3.7129    1.0000 </r>
       <r>    3.7319    1.0000 </r>
       <r>    3.7578    1.0000 </r>
       <r>    3.7771    1.0000 </r>
       <r>    3.8122    1.0000 </r>
       <r>    3.9022    1.0000 </r>
       <r>    4.5024    1.0000 </r>
       <r>    4.5885    1.0000 </r>
       <r>    4.6168    1.0000 </r>
       <r>    4.6462    1.0000 </r>
       <r>    4.6795    1.0000 </r>
       <r>    4.7221    1.0000 </r>
       <r>    4.8143    1.0000 </r>
       <r>    4.8480    1.0000 </r>
       <r>    4.8620    1.0000 </r>
       <r>    4.8822    1.0000 </r>
       <r>    4.8887    1.0000 </r>
       <r>    4.9122    1.0000 </r>
       <r>    5.8790    1.0000 </r>
       <r>    5.8934    1.0000 </r>
       <r>    5.9712    1.0000 </r>
       <r>    6.0006    1.0000 </r>
       <r>    6.0230    1.0000 </r>
       <r>    6.0560    1.0000 </r>
       <r>    6.0691    1.0000 </r>
       <r>    6.1114    1.0000 </r>
       <r>    6.1337    1.0000 </r>
       <r>    6.1654    1.0000 </r>
       <r>    6.2045    1.0000 </r>
       <r>    6.2597    1.0000 </r>
       <r>    6.6029    1.0000 </r>
       <r>    6.6463    1.0000 </r>
       <r>    6.6804    1.0000 </r>
       <r>    6.7154    1.0000 </r>
       <r>    6.7352    1.0000 </r>
       <r>    6.7792    1.0000 </r>
       <r>    6.8001    1.0000 </r>
       <r>    6.8235    1.0000 </r>
       <r>    6.8451    1.0000 </r>
       <r>    6.8714    1.0000 </r>
       <r>    6.9525    1.0000 </r>
       <r>    6.9626    1.0000 </r>
       <r>    6.9662    1.0000 </r>
       <r>    6.9837    1.0000 </r>
       <r>    7.0118    1.0000 </r>
       <r>    7.0403    1.0000 </r>
       <r>    7.0835    1.0000 </r>
       <r>    7.1265    1.0000 </r>
       <r>    7.1662    1.0000 </r>
       <r>    7.2283    1.0000 </r>
       <r>    7.9808    1.0340 </r>
       <r>    8.0366    1.0026 </r>
       <r>    8.1394    0.7702 </r>
       <r>    9.2603   -0.0000 </r>
       <r>    9.3766   -0.0000 </r>
       <r>    9.4139   -0.0000 </r>
       <r>   11.8528   -0.0000 </r>
       <r>   11.8708   -0.0000 </r>
       <r>   11.9081   -0.0000 </r>
       <r>   11.9790   -0.0000 </r>
       <r>   12.0500   -0.0000 </r>
       <r>   12.1190   -0.0000 </r>
       <r>   12.1473   -0.0000 </r>
       <r>   12.2191   -0.0000 </r>
       <r>   12.3464   -0.0000 </r>
       <r>   12.8836   -0.0000 </r>
       <r>   12.9805   -0.0000 </r>
       <r>   13.0338   -0.0000 </r>
       <r>   13.0746   -0.0000 </r>
       <r>   13.1126   -0.0000 </r>
       <r>   13.1615   -0.0000 </r>
       <r>   13.2016   -0.0000 </r>
       <r>   13.2131   -0.0000 </r>
       <r>   13.2611   -0.0000 </r>
       <r>   13.2993   -0.0000 </r>
       <r>   13.3425   -0.0000 </r>
       <r>   13.3733   -0.0000 </r>
       <r>   13.4078   -0.0000 </r>
       <r>   13.4399   -0.0000 </r>
       <r>   13.4575   -0.0000 </r>
       <r>   13.4783   -0.0000 </r>
       <r>   13.5332   -0.0000 </r>
       <r>   13.5372   -0.0000 </r>
       <r>   13.5689   -0.0000 </r>
       <r>   13.6229   -0.0000 </r>
       <r>   13.6463   -0.0000 </r>
       <r>   13.7227    0.0000 </r>
       <r>   14.0724    0.0000 </r>
       <r>   14.1049    0.0000 </r>
       <r>   14.1301    0.0000 </r>
       <r>   14.2501    0.0000 </r>
       <r>   14.2859    0.0000 </r>
       <r>   14.3217    0.0000 </r>
      </set>
      <set comment="kpoint 2">
       <r>   -7.1888    1.0000 </r>
       <r>   -6.6588    1.0000 </r>
       <r>   -5.7151    1.0000 </r>
       <r>   -5.6759    1.0000 </r>
       <r>   -5.5949    1.0000 </r>
       <r>   -5.5477    1.0000 </r>
       <r>   -5.1943    1.0000 </r>
       <r>   -5.1548    1.0000 </r>
       <r>   -5.0905    1.0000 </r>
       <r>   -5.0506    1.0000 </r>
       <r>   -4.6427    1.0000 </r>
       <r>   -4.3257    1.0000 </r>
       <r>   -4.2889    1.0000 </r>
       <r>   -4.2616    1.0000 </r>
       <r>   -4.1263    1.0000 </r>
       <r>   -4.0687    1.0000 </r>
       <r>   -4.0201    1.0000 </r>
       <r>   -3.9678    1.0000 </r>
       <r>   -3.8677    1.0000 </r>
       <r>   -3.5033    1.0000 </r>
       <r>   -3.4372    1.0000 </r>
       <r>   -3.3609    1.0000 </r>
       <r>   -3.3378    1.0000 </r>
       <r>   -3.1895    1.0000 </r>
       <r>   -2.6163    1.0000 </r>
       <r>   -2.5383    1.0000 </r>
       <r>   -2.5094    1.0000 </r>
       <r>   -2.4756    1.0000 </r>
       <r>   -2.3624    1.0000 </r>
       <r>   -2.2327    1.0000 </r>
       <r>   -2.2063    1.0000 </r>
       <r>   -2.1199    1.0000 </r>
       <r>   -0.1455    1.0000 </r>
       <r>   -0.0599    1.0000 </r>
       <r>   -0.0365    1.0000 </r>
       <r>    0.0416    1.0000 </r>
       <r>    0.3237    1.0000 </r>
       <r>    0.4306    1.0000 </r>
       <r>    0.6244    1.0000 </r>
       <r>    0.7490    1.0000 </r>
       <r>    0.8815    1.0000 </r>
       <r>    0.9307    1.0000 </r>
       <r>    1.0042    1.0000 </r>
       <r>    1.0394    1.0000 </r>
       <r>    1.0898    1.0000 </r>
       <r>    1.1488    1.0000 </r>
       <r>    1.1720    1.0000 </r>
       <r>    1.1967    1.0000 </r>
       <r>    1.2588    1.0000 </r>
       <r>    1.3279    1.0000 </r>
       <r>    1.4126    1.0000 </r>
       <r>    1.4859    1.0000 </r>
       <r>    1.5216    1.0000 </r>
       <r>    2.6072    1.0000 </r>
       <r>    2.6338    1.0000 </r>
       <r>    2.6946    1.0000 </r>
       <r>    2.7151    1.0000 </r>
       <r>    2.8495    1.0000 </r>
       <r>    2.8926    1.0000 </r>
       <r>    2.9264    1.0000 </r>
       <r>    2.9510    1.0000 </r>
       <r>    2.9721    1.0000 </r>
       <r>    2.9987    1.0000 </r>
       <r>    3.0449    1.0000 </r>
       <r>    3.1036    1.0000 </r>
       <r>    3.1424    1.0000 </r>
       <r>    3.4948    1.0000 </r>
       <r>    3.5192    1.0000 </r>
       <r>    3.6354    1.0000 </r>
       <r>    3.6449    1.0000 </r>
       <r>    3.9358    1.0000 </r>
       <r>    3.9737    1.0000 </r>
       <r>    4.0484    1.0000 </r>
       <r>    4.1182    1.0000 </r>
       <r>    4.2619    1.0000 </r>
       <r>    4.3124    1.0000 </r>
       <r>    4.3564    1.0000 </r>
       <r>    4.3844    1.0000 </r>
       <r>    4.4015    1.0000 </r>
       <r>    4.4279    1.0000 </r>
       <r>    4.4486    1.0000 </r>
       <r>    4.4798    1.0000 </r>
       <r>    4.5841    1.0000 </r>
       <r>    4.6515    1.0000 </r>
       <r>    4.6638    1.0000 </r>
       <r>    4.7134    1.0000 </r>
       <r>    4.7634    1.0000 </r>
       <r>    4.8229    1.0000 </r>
       <r>    4.8576    1.0000 </r>
       <r>    4.9209    1.0000 </r>
       <r>    4.9936    1.0000 </r>
       <r>    5.0385    1.0000 </r>
       <r>    5.3689    1.0000 </r>
       <r>    5.4157    1.0000 </r>
       <r>    5.5214    1.0000 </r>
       <r>    5.5876    1.0000 </r>
       <r>    5.6377    1.0000 </r>
       <r>    5.6729    1.0000 </r>
       <r>    5.7996    1.0000 </r>
       <r>    5.8481    1.0000 </r>
       <r>    5.9372    1.0000 </r>
       <r>    5.9641    1.0000 </r>
       <r>    6.1720    1.0000 </r>
       <r>    6.1838    1.0000 </r>
       <r>    6.2436    1.0000 </r>
       <r>    6.2694    1.0000 </r>
       <r>    6.3559    1.0000 </r>
       <r>    6.4065    1.0000 </r>
       <r>    6.4769    1.0000 </r>
       <r>    6.5367    1.0000 </r>
       <r>    6.5619    1.0000 </r>
       <r>    6.6932    1.0000 </r>
       <r>    6.7486    1.0000 </r>
       <r>    6.8036    1.0000 </r>
       <r>    6.8269    1.0000 </r>
       <r>    6.8500    1.0000 </r>
       <r>    6.8775    1.0000 </r>
       <r>    6.9008    1.0000 </r>
       <r>    6.9585    1.0000 </r>
       <r>    6.9780    1.0000 </r>
       <r>    7.0334    1.0000 </r>
       <r>    7.0538    1.0000 </r>
       <r>    7.0875    1.0000 </r>
       <r>    7.1098    1.0000 </r>
       <r>    7.1719    1.0000 </r>
       <r>    7.5030    1.0000 </r>
       <r>    7.7162    1.0014 </r>
       <r>    7.7675    1.0040 </r>
       <r>    9.6473   -0.0000 </r>
       <r>   10.1473   -0.0000 </r>
       <r>   10.2145   -0.0000 </r>
       <r>   10.5941   -0.0000 </r>
       <r>   11.8902   -0.0000 </r>
       <r>   11.9157   -0.0000 </r>
       <r>   12.3969   -0.0000 </r>
       <r>   12.5057   -0.0000 </r>
       <r>   12.5447   -0.0000 </r>
       <r>   12.6368   -0.0000 </r>
       <r>   12.6715   -0.0000 </r>
       <r>   12.8160   -0.0000 </r>
       <r>   12.8565   -0.0000 </r>
       <r>   12.8818   -0.0000 </r>
       <r>   12.9145   -0.0000 </r>
       <r>   12.9536   -0.0000 </r>
       <r>   12.9859   -0.0000 </r>
       <r>   13.0134   -0.0000 </r>
       <r>   13.0545   -0.0000 </r>
       <r>   13.1152   -0.0000 </r>
       <r>   13.1560   -0.0000 </r>
       <r>   13.2040   -0.0000 </r>
       <r>   13.4387   -0.0000 </r>
       <r>   13.5115   -0.0000 </r>
       <r>   13.5564   -0.0000 </r>
       <r>   13.5860   -0.0000 </r>
       <r>   13.6181   -0.0000 </r>
       <r>   13.6511   -0.0000 </r>
       <r>   13.6823    0.0000 </r>
       <r>   13.7324    0.0000 </r>
       <r>   13.7668    0.0000 </r>
       <r>   13.9186    0.0000 </r>
       <r>   13.9490    0.0000 </r>
       <r>   13.9876    0.0000 </r>
       <r>   14.0450    0.0000 </r>
       <r>   14.4657    0.0000 </r>
       <r>   14.5787    0.0000 </r>
       <r>   14.6674    0.0000 </r>
       <r>   14.7421    0.0000 </r>
       <r>   14.8134    0.0000 </r>
      </set>
      <set comment="kpoint 3">
       <r>   -7.1903    1.0000 </r>
       <r>   -6.6522    1.0000 </r>
       <r>   -5.7428    1.0000 </r>
       <r>   -5.6938    1.0000 </r>
       <r>   -5.5878    1.0000 </r>
       <r>   -5.5185    1.0000 </r>
       <r>   -5.1934    1.0000 </r>
       <r>   -5.1689    1.0000 </r>
       <r>   -5.0942    1.0000 </r>
       <r>   -5.0085    1.0000 </r>
       <r>   -4.6479    1.0000 </r>
       <r>   -4.3459    1.0000 </r>
       <r>   -4.3119    1.0000 </r>
       <r>   -4.2191    1.0000 </r>
       <r>   -4.1748    1.0000 </r>
       <r>   -4.0663    1.0000 </r>
       <r>   -3.9956    1.0000 </r>
       <r>   -3.9755    1.0000 </r>
       <r>   -3.8408    1.0000 </r>
       <r>   -3.5011    1.0000 </r>
       <r>   -3.4694    1.0000 </r>
       <r>   -3.3798    1.0000 </r>
       <r>   -3.2981    1.0000 </r>
       <r>   -3.1913    1.0000 </r>
       <r>   -2.6309    1.0000 </r>
       <r>   -2.5825    1.0000 </r>
       <r>   -2.5076    1.0000 </r>
       <r>   -2.4183    1.0000 </r>
       <r>   -2.3183    1.0000 </r>
       <r>   -2.2835    1.0000 </r>
       <r>   -2.2032    1.0000 </r>
       <r>   -2.1158    1.0000 </r>
       <r>   -0.1570    1.0000 </r>
       <r>   -0.0652    1.0000 </r>
       <r>   -0.0082    1.0000 </r>
       <r>    0.0301    1.0000 </r>
       <r>    0.3371    1.0000 </r>
       <r>    0.3969    1.0000 </r>
       <r>    0.6592    1.0000 </r>
       <r>    0.7139    1.0000 </r>
       <r>    0.9229    1.0000 </r>
       <r>    0.9452    1.0000 </r>
       <r>    0.9986    1.0000 </r>
       <r>    1.0256    1.0000 </r>
       <r>    1.0796    1.0000 </r>
       <r>    1.1250    1.0000 </r>
       <r>    1.1621    1.0000 </r>
       <r>    1.2201    1.0000 </r>
       <r>    1.2456    1.0000 </r>
       <r>    1.3576    1.0000 </r>
       <r>    1.4129    1.0000 </r>
       <r>    1.4608    1.0000 </r>
       <r>    1.5335    1.0000 </r>
       <r>    2.5777    1.0000 </r>
       <r>    2.6352    1.0000 </r>
       <r>    2.6814    1.0000 </r>
       <r>    2.7376    1.0000 </r>
       <r>    2.8509    1.0000 </r>
       <r>    2.8910    1.0000 </r>
       <r>    2.9245    1.0000 </r>
       <r>    2.9497    1.0000 </r>
       <r>    2.9887    1.0000 </r>
       <r>    3.0369    1.0000 </r>
       <r>    3.0528    1.0000 </r>
       <r>    3.0817    1.0000 </r>
       <r>    3.1284    1.0000 </r>
       <r>    3.5045    1.0000 </r>
       <r>    3.5223    1.0000 </r>
       <r>    3.6234    1.0000 </r>
       <r>    3.6416    1.0000 </r>
       <r>    3.9355    1.0000 </r>
       <r>    3.9875    1.0000 </r>
       <r>    4.0224    1.0000 </r>
       <r>    4.1016    1.0000 </r>
       <r>    4.3003    1.0000 </r>
       <r>    4.3152    1.0000 </r>
       <r>    4.3435    1.0000 </r>
       <r>    4.3726    1.0000 </r>
       <r>    4.3973    1.0000 </r>
       <r>    4.4287    1.0000 </r>
       <r>    4.4478    1.0000 </r>
       <r>    4.4955    1.0000 </r>
       <r>    4.5977    1.0000 </r>
       <r>    4.6436    1.0000 </r>
       <r>    4.6612    1.0000 </r>
       <r>    4.7095    1.0000 </r>
       <r>    4.7347    1.0000 </r>
       <r>    4.8207    1.0000 </r>
       <r>    4.8719    1.0000 </r>
       <r>    4.9446    1.0000 </r>
       <r>    4.9850    1.0000 </r>
       <r>    5.0349    1.0000 </r>
       <r>    5.3609    1.0000 </r>
       <r>    5.4327    1.0000 </r>
       <r>    5.5292    1.0000 </r>
       <r>    5.5623    1.0000 </r>
       <r>    5.6328    1.0000 </r>
       <r>    5.6681    1.0000 </r>
       <r>    5.8234    1.0000 </r>
       <r>    5.8650    1.0000 </r>
       <r>    5.9224    1.0000 </r>
       <r>    5.9760    1.0000 </r>
       <r>    6.1006    1.0000 </r>
       <r>    6.2064    1.0000 </r>
       <r>    6.2556    1.0000 </r>
       <r>    6.3157    1.0000 </r>
       <r>    6.3708    1.0000 </r>
       <r>    6.4193    1.0000 </r>
       <r>    6.4789    1.0000 </r>
       <r>    6.5314    1.0000 </r>
       <r>    6.5850    1.0000 </r>
       <r>    6.6658    1.0000 </r>
       <r>    6.7386    1.0000 </r>
       <r>    6.7679    1.0000 </r>
       <r>    6.8232    1.0000 </r>
       <r>    6.8396    1.0000 </r>
       <r>    6.8685    1.0000 </r>
       <r>    6.9148    1.0000 </r>
       <r>    6.9682    1.0000 </r>
       <r>    6.9841    1.0000 </r>
       <r>    7.0047    1.0000 </r>
       <r>    7.0377    1.0000 </r>
       <r>    7.0730    1.0000 </r>
       <r>    7.1391    1.0000 </r>
       <r>    7.1883    1.0000 </r>
       <r>    7.5273    1.0000 </r>
       <r>    7.6696    1.0005 </r>
       <r>    7.7934    1.0063 </r>
       <r>    9.6546   -0.0000 </r>
       <r>   10.1259   -0.0000 </r>
       <r>   10.2289   -0.0000 </r>
       <r>   10.6079   -0.0000 </r>
       <r>   11.8658   -0.0000 </r>
       <r>   11.9684   -0.0000 </r>
       <r>   12.3583   -0.0000 </r>
       <r>   12.4723   -0.0000 </r>
       <r>   12.5128   -0.0000 </r>
       <r>   12.6152   -0.0000 </r>
       <r>   12.7150   -0.0000 </r>
       <r>   12.7638   -0.0000 </r>
       <r>   12.8097   -0.0000 </r>
       <r>   12.8559   -0.0000 </r>
       <r>   12.9416   -0.0000 </r>
       <r>   12.9752   -0.0000 </r>
       <r>   13.0050   -0.0000 </r>
       <r>   13.0458   -0.0000 </r>
       <r>   13.0744   -0.0000 </r>
       <r>   13.1244   -0.0000 </r>
       <r>   13.1663   -0.0000 </r>
       <r>   13.2654   -0.0000 </r>
       <r>   13.4466   -0.0000 </r>
       <r>   13.4974   -0.0000 </r>
       <r>   13.5520   -0.0000 </r>
       <r>   13.5812   -0.0000 </r>
       <r>   13.6201   -0.0000 </r>
       <r>   13.6331   -0.0000 </r>
       <r>   13.6790    0.0000 </r>
       <r>   13.7138    0.0000 </r>
       <r>   13.7823    0.0000 </r>
       <r>   13.8784    0.0000 </r>
       <r>   13.9335    0.0000 </r>
       <r>   14.0044    0.0000 </r>
       <r>   14.0922    0.0000 </r>
       <r>   14.4665    0.0000 </r>
       <r>   14.6185    0.0000 </r>
       <r>   14.6785    0.0000 </r>
       <r>   14.7516    0.0000 </r>
       <r>   14.7969    0.0000 </r>
      </set>
      <set comment="kpoint 4">
       <r>   -7.1904    1.0000 </r>
       <r>   -6.6518    1.0000 </r>
       <r>   -5.7581    1.0000 </r>
       <r>   -5.6620    1.0000 </r>
       <r>   -5.5884    1.0000 </r>
       <r>   -5.5372    1.0000 </r>
       <r>   -5.2276    1.0000 </r>
       <r>   -5.1457    1.0000 </r>
       <r>   -5.0619    1.0000 </r>
       <r>   -5.0291    1.0000 </r>
       <r>   -4.6401    1.0000 </r>
       <r>   -4.3484    1.0000 </r>
       <r>   -4.3023    1.0000 </r>
       <r>   -4.2456    1.0000 </r>
       <r>   -4.1766    1.0000 </r>
       <r>   -4.0606    1.0000 </r>
       <r>   -4.0094    1.0000 </r>
       <r>   -3.9539    1.0000 </r>
       <r>   -3.8300    1.0000 </r>
       <r>   -3.5295    1.0000 </r>
       <r>   -3.4096    1.0000 </r>
       <r>   -3.3743    1.0000 </r>
       <r>   -3.3496    1.0000 </r>
       <r>   -3.1882    1.0000 </r>
       <r>   -2.6335    1.0000 </r>
       <r>   -2.5483    1.0000 </r>
       <r>   -2.5058    1.0000 </r>
       <r>   -2.4564    1.0000 </r>
       <r>   -2.3268    1.0000 </r>
       <r>   -2.2968    1.0000 </r>
       <r>   -2.1860    1.0000 </r>
       <r>   -2.1049    1.0000 </r>
       <r>   -0.1552    1.0000 </r>
       <r>   -0.0560    1.0000 </r>
       <r>   -0.0189    1.0000 </r>
       <r>    0.0381    1.0000 </r>
       <r>    0.3407    1.0000 </r>
       <r>    0.3734    1.0000 </r>
       <r>    0.6944    1.0000 </r>
       <r>    0.7187    1.0000 </r>
       <r>    0.8770    1.0000 </r>
       <r>    0.9281    1.0000 </r>
       <r>    1.0052    1.0000 </r>
       <r>    1.0303    1.0000 </r>
       <r>    1.0725    1.0000 </r>
       <r>    1.1241    1.0000 </r>
       <r>    1.1586    1.0000 </r>
       <r>    1.1889    1.0000 </r>
       <r>    1.2561    1.0000 </r>
       <r>    1.3735    1.0000 </r>
       <r>    1.4498    1.0000 </r>
       <r>    1.4823    1.0000 </r>
       <r>    1.5303    1.0000 </r>
       <r>    2.6078    1.0000 </r>
       <r>    2.6501    1.0000 </r>
       <r>    2.6778    1.0000 </r>
       <r>    2.7226    1.0000 </r>
       <r>    2.8368    1.0000 </r>
       <r>    2.8959    1.0000 </r>
       <r>    2.9234    1.0000 </r>
       <r>    2.9484    1.0000 </r>
       <r>    2.9889    1.0000 </r>
       <r>    3.0121    1.0000 </r>
       <r>    3.0393    1.0000 </r>
       <r>    3.0804    1.0000 </r>
       <r>    3.1373    1.0000 </r>
       <r>    3.4912    1.0000 </r>
       <r>    3.5219    1.0000 </r>
       <r>    3.6230    1.0000 </r>
       <r>    3.6520    1.0000 </r>
       <r>    3.8751    1.0000 </r>
       <r>    4.0236    1.0000 </r>
       <r>    4.0380    1.0000 </r>
       <r>    4.1087    1.0000 </r>
       <r>    4.2824    1.0000 </r>
       <r>    4.3205    1.0000 </r>
       <r>    4.3543    1.0000 </r>
       <r>    4.3778    1.0000 </r>
       <r>    4.3962    1.0000 </r>
       <r>    4.4202    1.0000 </r>
       <r>    4.4777    1.0000 </r>
       <r>    4.4986    1.0000 </r>
       <r>    4.5807    1.0000 </r>
       <r>    4.6259    1.0000 </r>
       <r>    4.6707    1.0000 </r>
       <r>    4.7152    1.0000 </r>
       <r>    4.7328    1.0000 </r>
       <r>    4.8445    1.0000 </r>
       <r>    4.8573    1.0000 </r>
       <r>    4.9237    1.0000 </r>
       <r>    4.9784    1.0000 </r>
       <r>    5.0403    1.0000 </r>
       <r>    5.3798    1.0000 </r>
       <r>    5.4270    1.0000 </r>
       <r>    5.5387    1.0000 </r>
       <r>    5.5849    1.0000 </r>
       <r>    5.5931    1.0000 </r>
       <r>    5.6891    1.0000 </r>
       <r>    5.8138    1.0000 </r>
       <r>    5.8612    1.0000 </r>
       <r>    5.9311    1.0000 </r>
       <r>    5.9805    1.0000 </r>
       <r>    6.1290    1.0000 </r>
       <r>    6.1878    1.0000 </r>
       <r>    6.2596    1.0000 </r>
       <r>    6.2848    1.0000 </r>
       <r>    6.3409    1.0000 </r>
       <r>    6.4232    1.0000 </r>
       <r>    6.4602    1.0000 </r>
       <r>    6.5198    1.0000 </r>
       <r>    6.5771    1.0000 </r>
       <r>    6.7031    1.0000 </r>
       <r>    6.7381    1.0000 </r>
       <r>    6.7856    1.0000 </r>
       <r>    6.8283    1.0000 </r>
       <r>    6.8443    1.0000 </r>
       <r>    6.8756    1.0000 </r>
       <r>    6.9010    1.0000 </r>
       <r>    6.9648    1.0000 </r>
       <r>    6.9855    1.0000 </r>
       <r>    7.0149    1.0000 </r>
       <r>    7.0366    1.0000 </r>
       <r>    7.0748    1.0000 </r>
       <r>    7.1425    1.0000 </r>
       <r>    7.2107    1.0000 </r>
       <r>    7.5107    1.0000 </r>
       <r>    7.6744    1.0005 </r>
       <r>    7.7836    1.0053 </r>
       <r>    9.6516   -0.0000 </r>
       <r>   10.1374   -0.0000 </r>
       <r>   10.1752   -0.0000 </r>
       <r>   10.6575   -0.0000 </r>
       <r>   11.8871   -0.0000 </r>
       <r>   11.9363   -0.0000 </r>
       <r>   12.3821   -0.0000 </r>
       <r>   12.4645   -0.0000 </r>
       <r>   12.5412   -0.0000 </r>
       <r>   12.5863   -0.0000 </r>
       <r>   12.6600   -0.0000 </r>
       <r>   12.7868   -0.0000 </r>
       <r>   12.8638   -0.0000 </r>
       <r>   12.8860   -0.0000 </r>
       <r>   12.9314   -0.0000 </r>
       <r>   12.9733   -0.0000 </r>
       <r>   12.9942   -0.0000 </r>
       <r>   13.0431   -0.0000 </r>
       <r>   13.0677   -0.0000 </r>
       <r>   13.1375   -0.0000 </r>
       <r>   13.1744   -0.0000 </r>
       <r>   13.2240   -0.0000 </r>
       <r>   13.4589   -0.0000 </r>
       <r>   13.4816   -0.0000 </r>
       <r>   13.5512   -0.0000 </r>
       <r>   13.5996   -0.0000 </r>
       <r>   13.6185   -0.0000 </r>
       <r>   13.6554   -0.0000 </r>
       <r>   13.6867    0.0000 </r>
       <r>   13.7170    0.0000 </r>
       <r>   13.7453    0.0000 </r>
       <r>   13.8751    0.0000 </r>
       <r>   13.9560    0.0000 </r>
       <r>   14.0077    0.0000 </r>
       <r>   14.0785    0.0000 </r>
       <r>   14.4420    0.0000 </r>
       <r>   14.6249    0.0000 </r>
       <r>   14.6850    0.0000 </r>
       <r>   14.7333    0.0000 </r>
       <r>   14.7794    0.0000 </r>
      </set>
      <set comment="kpoint 5">
       <r>   -7.0148    1.0000 </r>
       <r>   -6.5141    1.0000 </r>
       <r>   -6.4566    1.0000 </r>
       <r>   -5.9632    1.0000 </r>
       <r>   -5.5048    1.0000 </r>
       <r>   -5.4348    1.0000 </r>
       <r>   -5.0431    1.0000 </r>
       <r>   -5.0157    1.0000 </r>
       <r>   -4.9985    1.0000 </r>
       <r>   -4.8729    1.0000 </r>
       <r>   -4.6332    1.0000 </r>
       <r>   -4.5521    1.0000 </r>
       <r>   -4.4663    1.0000 </r>
       <r>   -4.4350    1.0000 </r>
       <r>   -4.0378    1.0000 </r>
       <r>   -4.0062    1.0000 </r>
       <r>   -3.6058    1.0000 </r>
       <r>   -3.5271    1.0000 </r>
       <r>   -3.4858    1.0000 </r>
       <r>   -3.4141    1.0000 </r>
       <r>   -3.3980    1.0000 </r>
       <r>   -3.2887    1.0000 </r>
       <r>   -3.1460    1.0000 </r>
       <r>   -3.1164    1.0000 </r>
       <r>   -2.8948    1.0000 </r>
       <r>   -2.8552    1.0000 </r>
       <r>   -2.7828    1.0000 </r>
       <r>   -2.6707    1.0000 </r>
       <r>   -2.6430    1.0000 </r>
       <r>   -2.3660    1.0000 </r>
       <r>   -2.2893    1.0000 </r>
       <r>   -2.2154    1.0000 </r>
       <r>   -0.2381    1.0000 </r>
       <r>   -0.1753    1.0000 </r>
       <r>    0.3812    1.0000 </r>
       <r>    0.4517    1.0000 </r>
       <r>    0.4950    1.0000 </r>
       <r>    0.5472    1.0000 </r>
       <r>    0.5867    1.0000 </r>
       <r>    0.6261    1.0000 </r>
       <r>    0.7060    1.0000 </r>
       <r>    0.7390    1.0000 </r>
       <r>    0.7595    1.0000 </r>
       <r>    0.8362    1.0000 </r>
       <r>    0.9156    1.0000 </r>
       <r>    1.0340    1.0000 </r>
       <r>    1.1951    1.0000 </r>
       <r>    1.2600    1.0000 </r>
       <r>    1.2812    1.0000 </r>
       <r>    1.3151    1.0000 </r>
       <r>    1.9170    1.0000 </r>
       <r>    1.9973    1.0000 </r>
       <r>    2.0131    1.0000 </r>
       <r>    2.0617    1.0000 </r>
       <r>    2.0889    1.0000 </r>
       <r>    2.1324    1.0000 </r>
       <r>    2.4044    1.0000 </r>
       <r>    2.5262    1.0000 </r>
       <r>    2.5813    1.0000 </r>
       <r>    2.6565    1.0000 </r>
       <r>    2.7642    1.0000 </r>
       <r>    3.1672    1.0000 </r>
       <r>    3.2421    1.0000 </r>
       <r>    3.2797    1.0000 </r>
       <r>    3.3411    1.0000 </r>
       <r>    3.3767    1.0000 </r>
       <r>    3.4834    1.0000 </r>
       <r>    3.5307    1.0000 </r>
       <r>    3.8767    1.0000 </r>
       <r>    3.9110    1.0000 </r>
       <r>    3.9645    1.0000 </r>
       <r>    3.9944    1.0000 </r>
       <r>    4.0203    1.0000 </r>
       <r>    4.0968    1.0000 </r>
       <r>    4.1496    1.0000 </r>
       <r>    4.2621    1.0000 </r>
       <r>    4.3339    1.0000 </r>
       <r>    4.4577    1.0000 </r>
       <r>    4.4809    1.0000 </r>
       <r>    4.6141    1.0000 </r>
       <r>    4.6827    1.0000 </r>
       <r>    4.8035    1.0000 </r>
       <r>    4.8400    1.0000 </r>
       <r>    4.8788    1.0000 </r>
       <r>    4.9258    1.0000 </r>
       <r>    4.9559    1.0000 </r>
       <r>    5.0086    1.0000 </r>
       <r>    5.0746    1.0000 </r>
       <r>    5.2060    1.0000 </r>
       <r>    5.2338    1.0000 </r>
       <r>    5.3480    1.0000 </r>
       <r>    5.3652    1.0000 </r>
       <r>    5.4420    1.0000 </r>
       <r>    5.4768    1.0000 </r>
       <r>    5.4942    1.0000 </r>
       <r>    5.5609    1.0000 </r>
       <r>    5.6054    1.0000 </r>
       <r>    5.6515    1.0000 </r>
       <r>    5.6619    1.0000 </r>
       <r>    5.7010    1.0000 </r>
       <r>    5.7763    1.0000 </r>
       <r>    5.8474    1.0000 </r>
       <r>    5.9610    1.0000 </r>
       <r>    6.0021    1.0000 </r>
       <r>    6.0477    1.0000 </r>
       <r>    6.1020    1.0000 </r>
       <r>    6.1691    1.0000 </r>
       <r>    6.2234    1.0000 </r>
       <r>    6.2492    1.0000 </r>
       <r>    6.2872    1.0000 </r>
       <r>    6.4121    1.0000 </r>
       <r>    6.4331    1.0000 </r>
       <r>    6.4702    1.0000 </r>
       <r>    6.5168    1.0000 </r>
       <r>    6.5734    1.0000 </r>
       <r>    6.6414    1.0000 </r>
       <r>    6.7073    1.0000 </r>
       <r>    6.7617    1.0000 </r>
       <r>    6.7846    1.0000 </r>
       <r>    6.8605    1.0000 </r>
       <r>    6.9177    1.0000 </r>
       <r>    6.9602    1.0000 </r>
       <r>    7.0578    1.0000 </r>
       <r>    7.3515    1.0000 </r>
       <r>    7.5157    1.0000 </r>
       <r>    7.6089    1.0001 </r>
       <r>    7.6506    1.0003 </r>
       <r>    7.9562    1.0353 </r>
       <r>   10.3400   -0.0000 </r>
       <r>   10.4619   -0.0000 </r>
       <r>   10.4813   -0.0000 </r>
       <r>   11.2447   -0.0000 </r>
       <r>   11.3602   -0.0000 </r>
       <r>   11.5863   -0.0000 </r>
       <r>   11.6551   -0.0000 </r>
       <r>   11.7567   -0.0000 </r>
       <r>   12.0861   -0.0000 </r>
       <r>   12.2085   -0.0000 </r>
       <r>   12.6824   -0.0000 </r>
       <r>   12.7410   -0.0000 </r>
       <r>   12.7860   -0.0000 </r>
       <r>   12.8667   -0.0000 </r>
       <r>   12.9534   -0.0000 </r>
       <r>   13.0221   -0.0000 </r>
       <r>   13.0375   -0.0000 </r>
       <r>   13.0648   -0.0000 </r>
       <r>   13.1585   -0.0000 </r>
       <r>   13.1957   -0.0000 </r>
       <r>   13.2313   -0.0000 </r>
       <r>   13.2790   -0.0000 </r>
       <r>   13.4556   -0.0000 </r>
       <r>   13.5054   -0.0000 </r>
       <r>   13.5823   -0.0000 </r>
       <r>   13.5887   -0.0000 </r>
       <r>   13.6800    0.0000 </r>
       <r>   13.7288    0.0000 </r>
       <r>   13.7475    0.0000 </r>
       <r>   13.7729    0.0000 </r>
       <r>   13.8514    0.0000 </r>
       <r>   13.9034    0.0000 </r>
       <r>   14.0106    0.0000 </r>
       <r>   14.0871    0.0000 </r>
       <r>   14.1224    0.0000 </r>
       <r>   14.5763    0.0000 </r>
       <r>   14.6465    0.0000 </r>
       <r>   14.7126    0.0000 </r>
       <r>   14.8164    0.0000 </r>
       <r>   14.9168    0.0000 </r>
      </set>
      <set comment="kpoint 6">
       <r>   -7.0171    1.0000 </r>
       <r>   -6.4901    1.0000 </r>
       <r>   -6.4719    1.0000 </r>
       <r>   -5.9747    1.0000 </r>
       <r>   -5.5220    1.0000 </r>
       <r>   -5.3961    1.0000 </r>
       <r>   -5.0918    1.0000 </r>
       <r>   -5.0385    1.0000 </r>
       <r>   -4.9361    1.0000 </r>
       <r>   -4.9124    1.0000 </r>
       <r>   -4.6501    1.0000 </r>
       <r>   -4.5203    1.0000 </r>
       <r>   -4.4590    1.0000 </r>
       <r>   -4.3705    1.0000 </r>
       <r>   -4.0521    1.0000 </r>
       <r>   -4.0327    1.0000 </r>
       <r>   -3.5929    1.0000 </r>
       <r>   -3.5763    1.0000 </r>
       <r>   -3.4821    1.0000 </r>
       <r>   -3.4359    1.0000 </r>
       <r>   -3.3650    1.0000 </r>
       <r>   -3.3188    1.0000 </r>
       <r>   -3.1557    1.0000 </r>
       <r>   -3.0666    1.0000 </r>
       <r>   -2.8799    1.0000 </r>
       <r>   -2.8568    1.0000 </r>
       <r>   -2.7521    1.0000 </r>
       <r>   -2.7245    1.0000 </r>
       <r>   -2.6459    1.0000 </r>
       <r>   -2.3445    1.0000 </r>
       <r>   -2.3099    1.0000 </r>
       <r>   -2.2086    1.0000 </r>
       <r>   -0.2311    1.0000 </r>
       <r>   -0.1688    1.0000 </r>
       <r>    0.3618    1.0000 </r>
       <r>    0.4450    1.0000 </r>
       <r>    0.4793    1.0000 </r>
       <r>    0.5410    1.0000 </r>
       <r>    0.6120    1.0000 </r>
       <r>    0.6304    1.0000 </r>
       <r>    0.6889    1.0000 </r>
       <r>    0.7667    1.0000 </r>
       <r>    0.7942    1.0000 </r>
       <r>    0.8406    1.0000 </r>
       <r>    0.9080    1.0000 </r>
       <r>    1.0309    1.0000 </r>
       <r>    1.1866    1.0000 </r>
       <r>    1.2023    1.0000 </r>
       <r>    1.2719    1.0000 </r>
       <r>    1.3390    1.0000 </r>
       <r>    1.9203    1.0000 </r>
       <r>    1.9586    1.0000 </r>
       <r>    2.0235    1.0000 </r>
       <r>    2.0762    1.0000 </r>
       <r>    2.1074    1.0000 </r>
       <r>    2.1839    1.0000 </r>
       <r>    2.4024    1.0000 </r>
       <r>    2.5309    1.0000 </r>
       <r>    2.5700    1.0000 </r>
       <r>    2.6677    1.0000 </r>
       <r>    2.7407    1.0000 </r>
       <r>    3.1384    1.0000 </r>
       <r>    3.2509    1.0000 </r>
       <r>    3.2817    1.0000 </r>
       <r>    3.3198    1.0000 </r>
       <r>    3.3773    1.0000 </r>
       <r>    3.5015    1.0000 </r>
       <r>    3.5150    1.0000 </r>
       <r>    3.8639    1.0000 </r>
[...]
      </set>
     </set>
    </set>
   </array>
  </eigenvalues>
  <separator name="orbital magnetization" >
   <v name="MAGDIPOLOUT">      0.00000000      0.00000000      0.00000000</v>
  </separator>
  <dos>
   <i name="efermi">      8.20741617 </i>
   <total>
    <array>
     <dimension dim="1">gridpoints</dimension>
     <dimension dim="2">spin</dimension>
     <field>energy</field>
     <field>total</field>
     <field>integrated</field>
     <set>
      <set comment="spin 1">
       <r>    -9.3660     0.0000     0.0000 </r>
       <r>    -9.2769     0.0000     0.0000 </r>
       <r>    -9.1878     0.0000     0.0000 </r>
       <r>    -9.0987     0.0000     0.0000 </r>
       <r>    -9.0096    -0.0000    -0.0000 </r>
       <r>    -8.9205    -0.0000    -0.0000 </r>
       <r>    -8.8314    -0.0000    -0.0000 </r>
       <r>    -8.7422    -0.0000    -0.0000 </r>
       <r>    -8.6531    -0.0000    -0.0000 </r>
       <r>    -8.5640    -0.0000    -0.0000 </r>
       <r>    -8.4749    -0.0000    -0.0000 </r>
       <r>    -8.3858    -0.0000    -0.0000 </r>
       <r>    -8.2967    -0.0000    -0.0000 </r>
       <r>    -8.2076    -0.0000    -0.0000 </r>
       <r>    -8.1185    -0.0000    -0.0000 </r>
       <r>    -8.0294    -0.0000    -0.0000 </r>
       <r>    -7.9403    -0.0001    -0.0000 </r>
       <r>    -7.8511    -0.0012    -0.0001 </r>
       <r>    -7.7620    -0.0067    -0.0007 </r>
       <r>    -7.6729    -0.0221    -0.0027 </r>
       <r>    -7.5838    -0.0425    -0.0065 </r>
       <r>    -7.4947    -0.0269    -0.0089 </r>
       <r>    -7.4056     0.1270     0.0024 </r>
       <r>    -7.3165     0.5964     0.0556 </r>
       <r>    -7.2274     1.5171     0.1908 </r>
       <r>    -7.1383     2.7959     0.4399 </r>
       <r>    -7.0492     4.0564     0.8014 </r>
       <r>    -6.9601     4.6313     1.2141 </r>
       <r>    -6.8709     4.1326     1.5823 </r>
       <r>    -6.7818     3.0959     1.8582 </r>
       <r>    -6.6927     2.6990     2.0987 </r>
       <r>    -6.6036     4.0973     2.4638 </r>
       <r>    -6.5145     7.1847     3.1040 </r>
       <r>    -6.4254     9.9211     3.9881 </r>
       <r>    -6.3363    10.0979     4.8879 </r>
       <r>    -6.2472     7.4798     5.5544 </r>
       <r>    -6.1581     3.9382     5.9054 </r>
       <r>    -6.0690     2.2343     6.1045 </r>
       <r>    -5.9798     3.6769     6.4321 </r>
       <r>    -5.8907     7.0494     7.0603 </r>
       <r>    -5.8016    10.3051     7.9786 </r>
       <r>    -5.7125    11.8140     9.0313 </r>
       <r>    -5.6234    11.4246    10.0494 </r>
       <r>    -5.5343    10.5837    10.9925 </r>
       <r>    -5.4452     9.6477    11.8522 </r>
       <r>    -5.3561     7.9639    12.5618 </r>
       <r>    -5.2670     6.7630    13.1645 </r>
       <r>    -5.1779     8.4514    13.9176 </r>
       <r>    -5.0888    12.8246    15.0604 </r>
       <r>    -4.9996    15.7382    16.4628 </r>
       <r>    -4.9105    13.4699    17.6631 </r>
       <r>    -4.8214     7.8077    18.3588 </r>
       <r>    -4.7323     4.3578    18.7472 </r>
       <r>    -4.6432     6.1506    19.2952 </r>
       <r>    -4.5541    11.2982    20.3020 </r>
       <r>    -4.4650    16.5199    21.7741 </r>
       <r>    -4.3759    19.2056    23.4855 </r>
       <r>    -4.2868    17.7659    25.0686 </r>
       <r>    -4.1977    14.7969    26.3872 </r>
       <r>    -4.1085    15.9286    27.8066 </r>
       <r>    -4.0194    20.9908    29.6770 </r>
       <r>    -3.9303    22.8689    31.7149 </r>
       <r>    -3.8412    18.5056    33.3639 </r>
       <r>    -3.7521    13.1220    34.5332 </r>
       <r>    -3.6630    12.2936    35.6287 </r>
       <r>    -3.5739    15.8591    37.0419 </r>
       <r>    -3.4848    19.8103    38.8072 </r>
       <r>    -3.3957    20.7967    40.6604 </r>
       <r>    -3.3066    18.7639    42.3324 </r>
       <r>    -3.2174    17.0618    43.8528 </r>
       <r>    -3.1283    17.9437    45.4517 </r>
       <r>    -3.0392    19.4049    47.1809 </r>
       <r>    -2.9501    20.5536    49.0124 </r>
       <r>    -2.8610    22.9479    51.0573 </r>
       <r>    -2.7719    25.0506    53.2895 </r>
       <r>    -2.6828    23.6299    55.3952 </r>
       <r>    -2.5937    18.5468    57.0479 </r>
       <r>    -2.5046    13.1716    58.2216 </r>
       <r>    -2.4155    11.6320    59.2581 </r>
       <r>    -2.3264    14.1437    60.5185 </r>
       <r>    -2.2372    15.9899    61.9433 </r>
       <r>    -2.1481    13.3064    63.1290 </r>
       <r>    -2.0590     7.5595    63.8027 </r>
       <r>    -1.9699     2.6256    64.0366 </r>
       <r>    -1.8808     0.2345    64.0575 </r>
       <r>    -1.7917    -0.3219    64.0288 </r>
       <r>    -1.7026    -0.2224    64.0090 </r>
       <r>    -1.6135    -0.0798    64.0019 </r>
       <r>    -1.5244    -0.0184    64.0003 </r>
       <r>    -1.4353    -0.0028    64.0000 </r>
       <r>    -1.3461    -0.0003    64.0000 </r>
       <r>    -1.2570    -0.0000    64.0000 </r>
       <r>    -1.1679    -0.0002    64.0000 </r>
       <r>    -1.0788    -0.0014    63.9999 </r>
       <r>    -0.9897    -0.0077    63.9992 </r>
       <r>    -0.9006    -0.0251    63.9969 </r>
       <r>    -0.8115    -0.0388    63.9935 </r>
       <r>    -0.7224     0.0271    63.9959 </r>
       <r>    -0.6333     0.2472    64.0179 </r>
       <r>    -0.5442     0.5013    64.0626 </r>
       <r>    -0.4551     0.6690    64.1222 </r>
       <r>    -0.3659     1.4957    64.2555 </r>
       <r>    -0.2768     4.2663    64.6356 </r>
       <r>    -0.1877     8.2275    65.3688 </r>
       <r>    -0.0986    10.2969    66.2864 </r>
       <r>    -0.0095     9.1431    67.1011 </r>
       <r>     0.0796     7.1918    67.7419 </r>
       <r>     0.1687     7.7621    68.4336 </r>
       <r>     0.2578    11.9167    69.4955 </r>
       <r>     0.3469    17.8563    71.0867 </r>
       <r>     0.4360    22.1507    73.0605 </r>
       <r>     0.5252    22.8879    75.1001 </r>
       <r>     0.6143    22.6349    77.1170 </r>
       <r>     0.7034    25.3674    79.3775 </r>
       <r>     0.7925    30.1932    82.0680 </r>
       <r>     0.8816    32.1126    84.9296 </r>
       <r>     0.9707    29.5288    87.5609 </r>
       <r>     1.0598    27.1299    89.9784 </r>
       <r>     1.1489    29.4248    92.6004 </r>
       <r>     1.2380    33.8001    95.6124 </r>
       <r>     1.3271    33.3327    98.5826 </r>
       <r>     1.4162    25.6545   100.8687 </r>
       <r>     1.5054    14.8261   102.1898 </r>
       <r>     1.5945     5.6768   102.6957 </r>
       <r>     1.6836     0.7534   102.7628 </r>
       <r>     1.7727     1.0045   102.8523 </r>
       <r>     1.8618     5.8752   103.3759 </r>
       <r>     1.9509    13.0917   104.5425 </r>
       <r>     2.0400    19.5420   106.2838 </r>
       <r>     2.1291    22.0780   108.2512 </r>
       <r>     2.2182    18.8916   109.9346 </r>
       <r>     2.3073    12.3456   111.0347 </r>
       <r>     2.3965     7.8135   111.7310 </r>
       <r>     2.4856     8.6341   112.5004 </r>
       <r>     2.5747    13.5292   113.7060 </r>
       <r>     2.6638    17.3086   115.2483 </r>
       <r>     2.7529    16.1151   116.6843 </r>
       <r>     2.8420    13.0100   117.8437 </r>
       <r>     2.9311    13.7791   119.0715 </r>
       <r>     3.0202    18.8369   120.7500 </r>
       <r>     3.1093    24.4309   122.9271 </r>
       <r>     3.1984    28.4908   125.4659 </r>
       <r>     3.2876    30.3853   128.1735 </r>
       <r>     3.3767    29.5265   130.8046 </r>
       <r>     3.4658    27.5798   133.2622 </r>
       <r>     3.5549    26.0026   135.5793 </r>
       <r>     3.6440    22.7919   137.6103 </r>
       <r>     3.7331    17.5734   139.1762 </r>
       <r>     3.8222    14.6876   140.4850 </r>
       <r>     3.9113    17.1123   142.0099 </r>
       <r>     4.0004    21.4972   143.9255 </r>
       <r>     4.0895    22.4759   145.9283 </r>
       <r>     4.1786    20.5552   147.7600 </r>
       <r>     4.2678    21.7029   149.6939 </r>
       <r>     4.3569    27.5553   152.1494 </r>
       <r>     4.4460    32.8823   155.0795 </r>
       <r>     4.5351    34.2375   158.1304 </r>
       <r>     4.6242    33.2148   161.0902 </r>
       <r>     4.7133    32.5672   163.9922 </r>
       <r>     4.8024    33.8289   167.0067 </r>
       <r>     4.8915    35.8457   170.2009 </r>
       <r>     4.9806    35.5925   173.3725 </r>
       <r>     5.0697    32.7379   176.2898 </r>
       <r>     5.1589    30.2968   178.9895 </r>
       <r>     5.2480    30.2772   181.6875 </r>
       <r>     5.3371    31.4248   184.4878 </r>
       <r>     5.4262    32.4891   187.3829 </r>
       <r>     5.5153    34.8493   190.4883 </r>
       <r>     5.6044    38.2052   193.8927 </r>
       <r>     5.6935    38.7417   197.3450 </r>
       <r>     5.7826    35.9340   200.5470 </r>
       <r>     5.8717    33.9521   203.5725 </r>
       <r>     5.9608    33.8365   206.5877 </r>
       <r>     6.0499    32.4434   209.4787 </r>
       <r>     6.1391    29.9102   212.1440 </r>
       <r>     6.2282    29.8074   214.8001 </r>
       <r>     6.3173    32.1901   217.6685 </r>
       <r>     6.4064    33.9901   220.6974 </r>
       <r>     6.4955    33.3607   223.6701 </r>
       <r>     6.5846    30.2912   226.3694 </r>
       <r>     6.6737    27.3407   228.8057 </r>
       <r>     6.7628    28.2120   231.3196 </r>
       <r>     6.8519    32.8393   234.2459 </r>
       <r>     6.9410    36.5982   237.5072 </r>
       <r>     7.0302    34.7352   240.6024 </r>
       <r>     7.1193    27.0455   243.0124 </r>
       <r>     7.2084    18.4367   244.6553 </r>
       <r>     7.2975    13.9084   245.8947 </r>
       <r>     7.3866    14.2361   247.1633 </r>
       <r>     7.4757    17.0493   248.6825 </r>
       <r>     7.5648    19.4081   250.4120 </r>
       <r>     7.6539    19.1944   252.1224 </r>
       <r>     7.7430    15.9022   253.5394 </r>
       <r>     7.8321    10.8543   254.5066 </r>
       <r>     7.9213     6.6053   255.0952 </r>
       <r>     8.0104     4.5411   255.4999 </r>
       <r>     8.0995     3.4420   255.8066 </r>
       <r>     8.1886     1.9597   255.9812 </r>
       <r>     8.2777     0.5361   256.0290 </r>
       <r>     8.3668    -0.1030   256.0198 </r>
       <r>     8.4559    -0.1474   256.0067 </r>
       <r>     8.5450    -0.0594   256.0014 </r>
       <r>     8.6341    -0.0136   256.0002 </r>
       <r>     8.7232    -0.0024   256.0000 </r>
       <r>     8.8123    -0.0029   255.9997 </r>
       <r>     8.9015    -0.0114   255.9987 </r>
       <r>     8.9906    -0.0261   255.9964 </r>
       <r>     9.0797    -0.0103   255.9955 </r>
       <r>     9.1688     0.1171   256.0059 </r>
       <r>     9.2579     0.3780   256.0396 </r>
       <r>     9.3470     0.6205   256.0949 </r>
       <r>     9.4361     0.7252   256.1595 </r>
       <r>     9.5252     0.9619   256.2452 </r>
       <r>     9.6143     1.5322   256.3817 </r>
       <r>     9.7034     1.7825   256.5406 </r>
       <r>     9.7926     1.1154   256.6400 </r>
       <r>     9.8817     0.1611   256.6543 </r>
       <r>     9.9708    -0.0408   256.6507 </r>
       <r>    10.0599     0.9303   256.7336 </r>
       <r>    10.1490     2.6603   256.9706 </r>
       <r>    10.2381     4.4556   257.3677 </r>
       <r>    10.3272     6.4401   257.9416 </r>
       <r>    10.4163     8.8717   258.7321 </r>
       <r>    10.5054    10.8815   259.7018 </r>
       <r>    10.5945    11.4094   260.7184 </r>
       <r>    10.6836    10.0286   261.6121 </r>
       <r>    10.7728     6.7598   262.2145 </r>
       <r>    10.8619     2.8008   262.4640 </r>
       <r>    10.9510     0.0833   262.4715 </r>
       <r>    11.0401    -0.6398   262.4144 </r>
       <r>    11.1292     0.5184   262.4606 </r>
       <r>    11.2183     3.4074   262.7643 </r>
       <r>    11.3074     6.7612   263.3667 </r>
       <r>    11.3965     8.8864   264.1586 </r>
       <r>    11.4856    10.1971   265.0673 </r>
       <r>    11.5747    12.1851   266.1531 </r>
       <r>    11.6639    14.7267   267.4654 </r>
       <r>    11.7530    16.9362   268.9746 </r>
       <r>    11.8421    18.3567   270.6103 </r>
       <r>    11.9312    18.5650   272.2646 </r>
       <r>    12.0203    17.8094   273.8516 </r>
       <r>    12.1094    16.3044   275.3045 </r>
       <r>    12.1985    12.8518   276.4497 </r>
       <r>    12.2876     7.9261   277.1560 </r>
       <r>    12.3767     5.5361   277.6493 </r>
       <r>    12.4658     8.2778   278.3870 </r>
       <r>    12.5549    14.3577   279.6664 </r>
       <r>    12.6441    20.9714   281.5351 </r>
       <r>    12.7332    26.7807   283.9215 </r>
       <r>    12.8223    30.9351   286.6782 </r>
       <r>    12.9114    32.7487   289.5964 </r>
       <r>    13.0005    32.4930   292.4918 </r>
       <r>    13.0896    30.7744   295.2341 </r>
       <r>    13.1787    27.1463   297.6531 </r>
       <r>    13.2678    21.3496   299.5556 </r>
       <r>    13.3569    16.8562   301.0576 </r>
       <r>    13.4460    18.9473   302.7460 </r>
       <r>    13.5352    26.5050   305.1079 </r>
       <r>    13.6243    32.0196   307.9611 </r>
       <r>    13.7134    31.7251   310.7881 </r>
       <r>    13.8025    29.1241   313.3834 </r>
       <r>    13.8916    28.5548   315.9279 </r>
       <r>    13.9807    30.0093   318.6020 </r>
       <r>    14.0698    30.2412   321.2968 </r>
       <r>    14.1589    26.3584   323.6455 </r>
       <r>    14.2480    18.2731   325.2738 </r>
       <r>    14.3371     9.4222   326.1135 </r>
       <r>    14.4263     4.9521   326.5547 </r>
       <r>    14.5154     7.9749   327.2654 </r>
       <r>    14.6045    16.0704   328.6974 </r>
       <r>    14.6936    22.0945   330.6662 </r>
       <r>    14.7827    21.1101   332.5473 </r>
       <r>    14.8718    14.9147   333.8764 </r>
       <r>    14.9609     7.9217   334.5823 </r>
       <r>    15.0500     2.9348   334.8438 </r>
       <r>    15.1391     1.4091   334.9694 </r>
       <r>    15.2282     2.8212   335.2208 </r>
       <r>    15.3173     4.2078   335.5957 </r>
       <r>    15.4065     3.3904   335.8978 </r>
       <r>    15.4956     1.3827   336.0210 </r>
       <r>    15.5847     0.0887   336.0289 </r>
       <r>    15.6738    -0.1908   336.0119 </r>
       <r>    15.7629    -0.1021   336.0028 </r>
       <r>    15.8520    -0.0271   336.0004 </r>
       <r>    15.9411    -0.0044   336.0000 </r>
       <r>    16.0302    -0.0005   336.0000 </r>
       <r>    16.1193    -0.0000   336.0000 </r>
       <r>    16.2084    -0.0000   336.0000 </r>
       <r>    16.2976    -0.0000   336.0000 </r>
       <r>    16.3867    -0.0000   336.0000 </r>
       <r>    16.4758    -0.0000   336.0000 </r>
       <r>    16.5649    -0.0000   336.0000 </r>
       <r>    16.6540    -0.0000   336.0000 </r>
       <r>    16.7431     0.0000   336.0000 </r>
       <r>    16.8322     0.0000   336.0000 </r>
       <r>    16.9213     0.0000   336.0000 </r>
       <r>    17.0104     0.0000   336.0000 </r>
       <r>    17.0995     0.0000   336.0000 </r>
       <r>    17.1886     0.0000   336.0000 </r>
       <r>    17.2778     0.0000   336.0000 </r>
       <r>    17.3669     0.0000   336.0000 </r>
      </set>
     </set>
    </array>
   </total>
  </dos>
 </calculation>
 <structure name="finalpos" >
  <crystal>
   <varray name="basis" >
    <v>       8.74331558       0.00000000       0.00000000 </v>
    <v>       0.00000000       8.74331558       0.00000000 </v>
    <v>       0.00000000       0.00000000       8.74331558 </v>
   </varray>
   <i name="volume">    668.38771987 </i>
   <varray name="rec_basis" >
    <v>       0.11437309       0.00000000       0.00000000 </v>
    <v>       0.00000000       0.11437309       0.00000000 </v>
    <v>       0.00000000       0.00000000       0.11437309 </v>
   </varray>
  </crystal>
  <varray name="positions" >
   <v>       0.12206227       0.11993360       0.12828304 </v>
   <v>       0.12290898       0.37407417       0.37541549 </v>
   <v>       0.38187272       0.12550951       0.36942192 </v>
   <v>       0.37437711       0.37986356       0.12571613 </v>
   <v>       0.11745579       0.12828560       0.62912876 </v>
   <v>       0.11858408       0.36576456       0.87328074 </v>
   <v>       0.36914482       0.12240609       0.87281252 </v>
   <v>       0.37331488       0.37085595       0.62758459 </v>
   <v>       0.12091620       0.63197628       0.12670081 </v>
   <v>       0.12030645       0.87887469       0.38025380 </v>
   <v>       0.37460769       0.62172668       0.37913710 </v>
   <v>       0.37563137       0.87433488       0.12129978 </v>
   <v>       0.11985469       0.62330692       0.62658881 </v>
   <v>       0.13062881       0.88104842       0.87578073 </v>
   <v>       0.37497350       0.62496989       0.87136762 </v>
   <v>       0.37831902       0.87791355       0.61833117 </v>
   <v>       0.62175871       0.11884877       0.12969800 </v>
   <v>       0.62219492       0.38674085       0.37986928 </v>
   <v>       0.87904805       0.12610180       0.37613031 </v>
   <v>       0.88049734       0.37229692       0.13408424 </v>
   <v>       0.63110616       0.12622842       0.63263670 </v>
   <v>       0.62177385       0.37943808       0.87874474 </v>
   <v>       0.88507294       0.12069065       0.88225363 </v>
   <v>       0.87362670       0.37771729       0.61824894 </v>
   <v>       0.62528015       0.61459515       0.12584332 </v>
   <v>       0.62012658       0.87462750       0.37894608 </v>
   <v>       0.87265578       0.63008966       0.36974865 </v>
   <v>       0.87377907       0.88095981       0.12091725 </v>
   <v>       0.62363046       0.62365847       0.63035930 </v>
   <v>       0.61873737       0.87073305       0.87476609 </v>
   <v>       0.88417550       0.62555721       0.88310585 </v>
   <v>       0.87185190       0.88073277       0.62406023 </v>
   <v>       0.99337663       0.99954031       0.99884689 </v>
   <v>       0.99808071       0.25142468       0.25014014 </v>
   <v>       0.25030181       0.99969427       0.25138172 </v>
   <v>       0.25507775       0.25224771       0.99875467 </v>
   <v>       0.00197113       0.00728570       0.50493564 </v>
   <v>       0.99577936       0.25059633       0.74667227 </v>
   <v>       0.25010902       0.99842932       0.75131682 </v>
   <v>       0.24199702       0.24016873       0.50485069 </v>
   <v>       0.99942489       0.49171761       0.99431086 </v>
   <v>       0.99746507       0.74604764       0.24350412 </v>
   <v>       0.24378522       0.49774950       0.25565337 </v>
   <v>       0.24418125       0.75493694       0.00696879 </v>
   <v>       0.00683348       0.50592155       0.49660785 </v>
   <v>       0.99837258       0.75120123       0.74352523 </v>
   <v>       0.26220804       0.49485738       0.74907886 </v>
   <v>       0.24287691       0.74719852       0.49458414 </v>
   <v>       0.49154142       0.99921440       0.00732586 </v>
   <v>       0.49847677       0.24731806       0.24955277 </v>
   <v>       0.74603220       0.00400740       0.25205638 </v>
   <v>       0.74936053       0.24754214       0.00279997 </v>
   <v>       0.49392004       0.99683280       0.50869020 </v>
   <v>       0.50049064       0.24769169       0.74287780 </v>
   <v>       0.75069389       0.99751532       0.75739776 </v>
   <v>       0.75806481       0.24416798       0.49526510 </v>
   <v>       0.50113418       0.49930171       0.00029094 </v>
   <v>       0.49809844       0.74937278       0.25287360 </v>
   <v>       0.74716058       0.49320751       0.25063951 </v>
   <v>       0.74924404       0.74719081       0.00560232 </v>
   <v>       0.49939491       0.49733430       0.49653655 </v>
   <v>       0.49632642       0.74081058       0.74941166 </v>
   <v>       0.75235225       0.50181050       0.74962770 </v>
   <v>       0.74514582       0.74764281       0.49506797 </v>
  </varray>
 </structure>
</modeling>
