unknown system                          
           1
     8.743316    0.000000    0.000000
     0.000000    8.743316    0.000000
     0.000000    0.000000    8.743316
   C    Si
    32    32
Direct configuration=     1
   0.12206227  0.11993360  0.12828304
   0.12290898  0.37407417  0.37541549
   0.38187272  0.12550951  0.36942192
   0.37437711  0.37986356  0.12571613
   0.11745579  0.12828560  0.62912876
   0.11858408  0.36576456  0.87328074
   0.36914482  0.12240609  0.87281252
   0.37331488  0.37085595  0.62758459
   0.12091620  0.63197628  0.12670081
   0.12030645  0.87887469  0.38025380
   0.37460769  0.62172668  0.37913710
   0.37563137  0.87433488  0.12129978
   0.11985469  0.62330692  0.62658881
   0.13062881  0.88104842  0.87578073
   0.37497350  0.62496989  0.87136762
   0.37831902  0.87791355  0.61833117
   0.62175871  0.11884877  0.12969800
   0.62219492  0.38674085  0.37986928
   0.87904805  0.12610180  0.37613031
   0.88049734  0.37229692  0.13408424
   0.63110616  0.12622842  0.63263670
   0.62177385  0.37943808  0.87874474
   0.88507294  0.12069065  0.88225363
   0.87362670  0.37771729  0.61824894
   0.62528015  0.61459515  0.12584332
   0.62012658  0.87462750  0.37894608
   0.87265578  0.63008966  0.36974865
   0.87377907  0.88095981  0.12091725
   0.62363046  0.62365847  0.63035930
   0.61873737  0.87073305  0.87476609
   0.88417550  0.62555721  0.88310585
   0.87185190  0.88073277  0.62406023
   0.99337663  0.99954031  0.99884689
   0.99808071  0.25142468  0.25014014
   0.25030181  0.99969427  0.25138172
   0.25507775  0.25224771  0.99875467
   0.00197113  0.00728570  0.50493564
   0.99577936  0.25059633  0.74667227
   0.25010902  0.99842932  0.75131682
   0.24199702  0.24016873  0.50485069
   0.99942489  0.49171761  0.99431086
   0.99746507  0.74604764  0.24350412
   0.24378522  0.49774950  0.25565337
   0.24418125  0.75493694  0.00696879
   0.00683348  0.50592155  0.49660785
   0.99837258  0.75120123  0.74352523
   0.26220804  0.49485738  0.74907886
   0.24287691  0.74719852  0.49458414
   0.49154142  0.99921440  0.00732586
   0.49847677  0.24731806  0.24955277
   0.74603220  0.00400740  0.25205638
   0.74936053  0.24754214  0.00279997
   0.49392004  0.99683280  0.50869020
   0.50049064  0.24769169  0.74287780
   0.75069389  0.99751532  0.75739776
   0.75806481  0.24416798  0.49526510
   0.50113418  0.49930171  0.00029094
   0.49809844  0.74937278  0.25287360
   0.74716058  0.49320751  0.25063951
   0.74924404  0.74719081  0.00560232
   0.49939491  0.49733430  0.49653655
   0.49632642  0.74081058  0.74941166
   0.75235225  0.50181050  0.74962770
   0.74514582  0.74764281  0.49506797
