       N       E                     dE             d eps       ncg     rms          rms(c)
DAV:   1     0.669079844859E+03    0.66908E+03   -0.99554E+04  4704   0.111E+03
DAV:   2    -0.462203579127E+03   -0.11313E+04   -0.10710E+04  5800   0.221E+02
DAV:   3    -0.537800765294E+03   -0.75597E+02   -0.74886E+02  5696   0.562E+01
DAV:   4    -0.539481296780E+03   -0.16805E+01   -0.16735E+01  5728   0.908E+00
DAV:   5    -0.539527210631E+03   -0.45914E-01   -0.45845E-01  5544   0.143E+00    0.492E+01
DAV:   6    -0.482860575247E+03    0.56667E+02   -0.19027E+02  5352   0.234E+01    0.218E+01
DAV:   7    -0.481507058264E+03    0.13535E+01   -0.15695E+01  5864   0.702E+00    0.974E+00
DAV:   8    -0.481278315548E+03    0.22874E+00   -0.10091E+00  5384   0.196E+00    0.262E+00
DAV:   9    -0.481262100040E+03    0.16216E-01   -0.14097E-01  5464   0.813E-01    0.433E-01
DAV:  10    -0.481265095603E+03   -0.29956E-02   -0.12850E-02  5768   0.251E-01    0.239E-01
DAV:  11    -0.481266149274E+03   -0.10537E-02   -0.20290E-03  5160   0.114E-01    0.807E-02
DAV:  12    -0.481266163250E+03   -0.13976E-04   -0.28544E-04  6304   0.419E-02    0.412E-02
DAV:  13    -0.481266174698E+03   -0.11447E-04   -0.90559E-05  5184   0.223E-02    0.107E-02
DAV:  14    -0.481266181242E+03   -0.65441E-05   -0.69320E-06  5488   0.558E-03    0.542E-03
DAV:  15    -0.481266183006E+03   -0.17644E-05   -0.15441E-06  5720   0.282E-03    0.333E-03
DAV:  16    -0.481266182788E+03    0.21862E-06   -0.16929E-07  5848   0.110E-03    0.133E-03
DAV:  17    -0.481266183056E+03   -0.26879E-06   -0.84165E-08  5168   0.635E-04    0.742E-04
DAV:  18    -0.481266183040E+03    0.16818E-07   -0.55185E-09  2712   0.198E-04    0.316E-04
DAV:  19    -0.481266183009E+03    0.30352E-07   -0.37988E-09  2704   0.135E-04    0.844E-05
DAV:  20    -0.481266183014E+03   -0.46857E-08   -0.44522E-10  2688   0.644E-05
   1 F= -.48126618E+03 E0= -.48126941E+03  d E =0.968428E-02
