<?xml version="1.0" encoding="ISO-8859-1"?>
<modeling>
 <generator>
  <i name="program" type="string">vasp </i>
  <i name="version" type="string">6.2.1  </i>
  <i name="subversion" type="string">16May21 (build Jun 06 2020 10:27:25) complex                          parallel </i>
  <i name="platform" type="string">LinuxIFC </i>
  <i name="date" type="string">2024 01 25 </i>
  <i name="time" type="string">17:15:28 </i>
 </generator>
 <incar>
  <i type="int" name="NELM">    60</i>
  <i type="int" name="IBRION">     1</i>
  <i name="EDIFF">      0.00000001</i>
  <i type="int" name="NSW">     0</i>
  <i type="int" name="ISIF">     3</i>
  <i type="int" name="ISYM">     0</i>
  <i type="logical" name="LWAVE"> F  </i>
  <i type="logical" name="LCHARG"> F  </i>
  <i type="string" name="GGA">PE</i>
 </incar>
 <primitive_cell>
  <structure name="primitive_cell" >
   <crystal>
    <varray name="basis" >
     <v>       8.74331558       0.00000000       0.00000000 </v>
     <v>       0.00000000       8.74331558       0.00000000 </v>
     <v>       0.00000000       0.00000000       8.74331558 </v>
    </varray>
    <i name="volume">    668.38771987 </i>
    <varray name="rec_basis" >
     <v>       0.11437309       0.00000000       0.00000000 </v>
     <v>       0.00000000       0.11437309       0.00000000 </v>
     <v>       0.00000000       0.00000000       0.11437309 </v>
    </varray>
   </crystal>
   <varray name="positions" >
    <v>       0.12622119       0.12260879       0.12780032 </v>
    <v>       0.12574054       0.37244283       0.37621400 </v>
    <v>       0.37298779       0.12375931       0.37293039 </v>
    <v>       0.37415919       0.37511448       0.12543004 </v>
    <v>       0.12666223       0.12557543       0.62274323 </v>
    <v>       0.12505331       0.37620970       0.87656537 </v>
    <v>       0.37409495       0.12275525       0.87804097 </v>
    <v>       0.37556078       0.37539179       0.62703830 </v>
    <v>       0.12680216       0.62571285       0.12710372 </v>
    <v>       0.12498588       0.87621125       0.37241207 </v>
    <v>       0.37550052       0.62824592       0.37160319 </v>
    <v>       0.37180742       0.87940365       0.12537148 </v>
    <v>       0.12255753       0.62586281       0.62715219 </v>
    <v>       0.12417480       0.87418369       0.87376204 </v>
    <v>       0.37173476       0.62636133       0.87180329 </v>
    <v>       0.37546870       0.87437829       0.62625680 </v>
    <v>       0.62094609       0.11932106       0.12060159 </v>
    <v>       0.62575746       0.37370829       0.37410114 </v>
    <v>       0.87296007       0.12812808       0.37560290 </v>
    <v>       0.87331130       0.37802479       0.12313536 </v>
    <v>       0.62813966       0.12678115       0.62803594 </v>
    <v>       0.62328974       0.37608932       0.86990885 </v>
    <v>       0.87589606       0.12399681       0.87450596 </v>
    <v>       0.87112608       0.37467100       0.62305893 </v>
    <v>       0.62397226       0.62661042       0.12486936 </v>
    <v>       0.62070013       0.87659072       0.37866256 </v>
    <v>       0.87749379       0.62411107       0.37490674 </v>
    <v>       0.87548958       0.87126173       0.12154665 </v>
    <v>       0.62782693       0.63011543       0.62276290 </v>
    <v>       0.62576996       0.87881419       0.87496555 </v>
    <v>       0.87460532       0.62693156       0.87420995 </v>
    <v>       0.87304193       0.87050595       0.62107462 </v>
    <v>       0.99798277       0.00008529       0.00102846 </v>
    <v>       0.00438980       0.25027342       0.25050048 </v>
    <v>       0.25151546       0.99997831       0.25203468 </v>
    <v>       0.24765888       0.24645813       0.00145810 </v>
    <v>       0.00043286       0.99959208       0.50045284 </v>
    <v>       0.99767342       0.25052117       0.74990906 </v>
    <v>       0.24875276       0.99975776       0.75373392 </v>
    <v>       0.25278702       0.24766679       0.50139677 </v>
    <v>       0.00129195       0.49657606       0.99861842 </v>
    <v>       0.00302692       0.74730211       0.24984120 </v>
    <v>       0.24957409       0.49959566       0.24439961 </v>
    <v>       0.24932890       0.74940931       0.99810825 </v>
    <v>       0.99860210       0.49927643       0.50049511 </v>
    <v>       0.99639786       0.74697003       0.74821020 </v>
    <v>       0.25038503       0.50307599       0.74771759 </v>
    <v>       0.24873959       0.75212583       0.50007651 </v>
    <v>       0.49815523       0.99885926       0.99877775 </v>
    <v>       0.49976102       0.25035745       0.24950024 </v>
    <v>       0.75044148       0.99972715       0.25237740 </v>
    <v>       0.74858067       0.25454662       0.00410682 </v>
    <v>       0.49855464       0.99998475       0.49894721 </v>
    <v>       0.49794368       0.24970738       0.74916545 </v>
    <v>       0.75162726       0.00104343       0.75232957 </v>
    <v>       0.74662969       0.25049036       0.49940528 </v>
    <v>       0.49894753       0.50377606       0.00195990 </v>
    <v>       0.50395439       0.75073044       0.24974872 </v>
    <v>       0.74732009       0.50044355       0.24951995 </v>
    <v>       0.75079154       0.75134925       0.00139801 </v>
    <v>       0.50007682       0.49970444       0.50254718 </v>
    <v>       0.49953275       0.74871637       0.75049683 </v>
    <v>       0.74941654       0.49893874       0.74961150 </v>
    <v>       0.75425971       0.75048264       0.49980264 </v>
   </varray>
  </structure>
  <varray name="primitive_index" >
   <v type="int" >        1 </v>
   <v type="int" >        2 </v>
   <v type="int" >        3 </v>
   <v type="int" >        4 </v>
   <v type="int" >        5 </v>
   <v type="int" >        6 </v>
   <v type="int" >        7 </v>
   <v type="int" >        8 </v>
   <v type="int" >        9 </v>
   <v type="int" >       10 </v>
   <v type="int" >       11 </v>
   <v type="int" >       12 </v>
   <v type="int" >       13 </v>
   <v type="int" >       14 </v>
   <v type="int" >       15 </v>
   <v type="int" >       16 </v>
   <v type="int" >       17 </v>
   <v type="int" >       18 </v>
   <v type="int" >       19 </v>
   <v type="int" >       20 </v>
   <v type="int" >       21 </v>
   <v type="int" >       22 </v>
   <v type="int" >       23 </v>
   <v type="int" >       24 </v>
   <v type="int" >       25 </v>
   <v type="int" >       26 </v>
   <v type="int" >       27 </v>
   <v type="int" >       28 </v>
   <v type="int" >       29 </v>
   <v type="int" >       30 </v>
   <v type="int" >       31 </v>
   <v type="int" >       32 </v>
   <v type="int" >       33 </v>
   <v type="int" >       34 </v>
   <v type="int" >       35 </v>
   <v type="int" >       36 </v>
   <v type="int" >       37 </v>
   <v type="int" >       38 </v>
   <v type="int" >       39 </v>
   <v type="int" >       40 </v>
   <v type="int" >       41 </v>
   <v type="int" >       42 </v>
   <v type="int" >       43 </v>
   <v type="int" >       44 </v>
   <v type="int" >       45 </v>
   <v type="int" >       46 </v>
   <v type="int" >       47 </v>
   <v type="int" >       48 </v>
   <v type="int" >       49 </v>
   <v type="int" >       50 </v>
   <v type="int" >       51 </v>
   <v type="int" >       52 </v>
   <v type="int" >       53 </v>
   <v type="int" >       54 </v>
   <v type="int" >       55 </v>
   <v type="int" >       56 </v>
   <v type="int" >       57 </v>
   <v type="int" >       58 </v>
   <v type="int" >       59 </v>
   <v type="int" >       60 </v>
   <v type="int" >       61 </v>
   <v type="int" >       62 </v>
   <v type="int" >       63 </v>
   <v type="int" >       64 </v>
  </varray>
 </primitive_cell>
 <kpoints>
  <generation param="Monkhorst-Pack">
   <v type="int" name="divisions">       3        3        3 </v>
   <v name="usershift">      0.00000000       0.00000000       0.00000000 </v>
   <v name="genvec1">      0.33333333       0.00000000       0.00000000 </v>
   <v name="genvec2">      0.00000000       0.33333333       0.00000000 </v>
   <v name="genvec3">      0.00000000       0.00000000       0.33333333 </v>
   <v name="shift">      0.00000000       0.00000000       0.00000000 </v>
  </generation>
  <varray name="kpointlist" >
   <v>       0.00000000       0.00000000       0.00000000 </v>
   <v>       0.33333333       0.00000000       0.00000000 </v>
   <v>       0.00000000       0.33333333       0.00000000 </v>
   <v>       0.00000000       0.00000000       0.33333333 </v>
   <v>       0.33333333       0.33333333       0.00000000 </v>
   <v>       0.00000000       0.33333333       0.33333333 </v>
   <v>       0.33333333       0.00000000       0.33333333 </v>
   <v>      -0.33333333       0.33333333       0.00000000 </v>
   <v>      -0.33333333       0.00000000       0.33333333 </v>
   <v>       0.00000000      -0.33333333       0.33333333 </v>
   <v>       0.33333333       0.33333333       0.33333333 </v>
   <v>      -0.33333333       0.33333333       0.33333333 </v>
   <v>      -0.33333333      -0.33333333       0.33333333 </v>
   <v>       0.33333333      -0.33333333       0.33333333 </v>
  </varray>
  <varray name="weights" >
   <v>       0.03703704 </v>
   <v>       0.07407407 </v>
   <v>       0.07407407 </v>
   <v>       0.07407407 </v>
   <v>       0.07407407 </v>
   <v>       0.07407407 </v>
   <v>       0.07407407 </v>
   <v>       0.07407407 </v>
   <v>       0.07407407 </v>
   <v>       0.07407407 </v>
   <v>       0.07407407 </v>
   <v>       0.07407407 </v>
   <v>       0.07407407 </v>
   <v>       0.07407407 </v>
  </varray>
 </kpoints>
 <parameters>
  <separator name="general" >
   <i type="string" name="SYSTEM">unknown system</i>
   <i type="logical" name="LCOMPAT"> F  </i>
  </separator>
  <separator name="electronic" >
   <i type="string" name="PREC">normal</i>
   <i name="ENMAX">    400.00000000</i>
   <i name="ENAUG">    644.87300000</i>
   <i name="EDIFF">      0.00000001</i>
   <i type="int" name="IALGO">    38</i>
   <i type="int" name="IWAVPR">    10</i>
   <i type="int" name="NBANDS">   168</i>
   <i type="int" name="NBANDSLOW">    -1</i>
   <i type="int" name="NBANDSHIGH">    -1</i>
   <i name="NELECT">    256.00000000</i>
   <i type="int" name="TURBO">     0</i>
   <i type="int" name="IRESTART">     0</i>
   <i type="int" name="NREBOOT">     0</i>
   <i type="int" name="NMIN">     0</i>
   <i name="EREF">      0.00000000</i>
   <separator name="electronic smearing" >
    <i type="int" name="ISMEAR">     1</i>
    <i name="SIGMA">      0.20000000</i>
    <i name="KSPACING">      0.50000000</i>
    <i type="logical" name="KGAMMA"> T  </i>
    <i type="logical" name="KBLOWUP"> T  </i>
   </separator>
   <separator name="electronic projectors" >
    <i type="logical" name="LREAL"> F  </i>
    <v name="ROPT">      0.00000000      0.00000000</v>
    <i type="int" name="LMAXPAW">  -100</i>
    <i type="int" name="LMAXMIX">     2</i>
    <i type="logical" name="NLSPLINE"> F  </i>
   </separator>
   <separator name="electronic startup" >
    <i type="int" name="ISTART">     0</i>
    <i type="int" name="ICHARG">     2</i>
    <i type="int" name="INIWAV">     1</i>
   </separator>
   <separator name="electronic spin" >
    <i type="int" name="ISPIN">     1</i>
    <i type="logical" name="LNONCOLLINEAR"> F  </i>
    <v name="MAGMOM">      1.00000000      1.00000000      1.00000000      1.00000000      1.00000000      1.00000000      1.00000000      1.00000000      1.00000000      1.00000000      1.00000000      1.00000000      1.00000000      1.00000000      1.00000000      1.00000000      1.00000000      1.00000000      1.00000000      1.00000000
      1.00000000      1.00000000      1.00000000      1.00000000      1.00000000      1.00000000      1.00000000      1.00000000      1.00000000      1.00000000      1.00000000      1.00000000      1.00000000      1.00000000      1.00000000      1.00000000      1.00000000      1.00000000      1.00000000      1.00000000
      1.00000000      1.00000000      1.00000000      1.00000000      1.00000000      1.00000000      1.00000000      1.00000000      1.00000000      1.00000000      1.00000000      1.00000000      1.00000000      1.00000000      1.00000000      1.00000000      1.00000000      1.00000000      1.00000000      1.00000000
      1.00000000      1.00000000      1.00000000      1.00000000</v>
    <i name="NUPDOWN">     -1.00000000</i>
    <i type="logical" name="LSORBIT"> F  </i>
    <v name="SAXIS">      0.00000000      0.00000000      1.00000000</v>
    <i type="logical" name="LSPIRAL"> F  </i>
    <v name="QSPIRAL">      0.00000000      0.00000000      0.00000000</v>
    <i type="logical" name="LZEROZ"> F  </i>
   </separator>
   <separator name="electronic exchange-correlation" >
    <i type="logical" name="LASPH"> F  </i>
    <i type="logical" name="LMETAGGA"> F  </i>
   </separator>
   <separator name="electronic convergence" >
    <i type="int" name="NELM">    60</i>
    <i type="int" name="NELMDL">    -5</i>
    <i type="int" name="NELMIN">     2</i>
    <i name="ENINI">    400.00000000</i>
    <separator name="electronic convergence detail" >
     <i type="logical" name="LDIAG"> T  </i>
     <i type="logical" name="LSUBROT"> F  </i>
     <i name="WEIMIN">      0.00000000</i>
     <i name="EBREAK">      0.00000000</i>
     <i name="DEPER">      0.30000000</i>
     <i type="int" name="NRMM">     4</i>
     <i name="TIME">      0.40000000</i>
    </separator>
   </separator>
   <separator name="electronic mixer" >
    <i name="AMIX">      0.40000000</i>
    <i name="BMIX">      1.00000000</i>
    <i name="AMIN">      0.10000000</i>
    <i name="AMIX_MAG">      1.60000000</i>
    <i name="BMIX_MAG">      1.00000000</i>
    <separator name="electronic mixer details" >
     <i type="int" name="IMIX">     4</i>
     <i type="logical" name="MIXFIRST"> F  </i>
     <i type="int" name="MAXMIX">   -45</i>
     <i name="WC">    100.00000000</i>
     <i type="int" name="INIMIX">     1</i>
     <i type="int" name="MIXPRE">     1</i>
     <i type="int" name="MREMOVE">     5</i>
    </separator>
   </separator>
   <separator name="electronic dipolcorrection" >
    <i type="logical" name="LDIPOL"> F  </i>
    <i type="logical" name="LMONO"> F  </i>
    <i type="int" name="IDIPOL">     0</i>
    <i name="EPSILON">      1.00000000</i>
    <v name="DIPOL">   -100.00000000   -100.00000000   -100.00000000</v>
    <i name="EFIELD">      0.00000000</i>
   </separator>
  </separator>
  <separator name="grids" >
   <i type="int" name="NGX">    48</i>
   <i type="int" name="NGY">    48</i>
   <i type="int" name="NGZ">    48</i>
   <i type="int" name="NGXF">    96</i>
   <i type="int" name="NGYF">    96</i>
   <i type="int" name="NGZF">    96</i>
   <i type="logical" name="ADDGRID"> F  </i>
  </separator>
  <separator name="ionic" >
   <i type="int" name="NSW">     0</i>
   <i type="int" name="IBRION">    -1</i>
   <i type="int" name="MDALGO">     0</i>
   <i type="int" name="ISIF">     3</i>
   <i name="PSTRESS">      0.00000000</i>
   <i name="EDIFFG">      0.00000010</i>
   <i type="int" name="NFREE">     0</i>
   <i name="POTIM">      0.50000000</i>
   <i name="SMASS">     -3.00000000</i>
   <i name="SCALEE">      1.00000000</i>
  </separator>
  <separator name="ionic md" >
   <i name="TEBEG">      0.00010000</i>
   <i name="TEEND">      0.00010000</i>
   <i type="int" name="NBLOCK">     1</i>
   <i type="int" name="KBLOCK">     1</i>
   <i type="int" name="NPACO">   256</i>
   <i name="APACO">     16.00000000</i>
  </separator>
  <separator name="symmetry" >
   <i type="int" name="ISYM">     0</i>
   <i name="SYMPREC">      0.00001000</i>
  </separator>
  <separator name="dos" >
   <i type="int" name="LORBIT">     0</i>
   <v name="RWIGS">     -1.00000000     -1.00000000</v>
   <i type="int" name="NEDOS">   301</i>
   <i name="EMIN">     10.00000000</i>
   <i name="EMAX">    -10.00000000</i>
   <i name="EFERMI">      0.00000000</i>
  </separator>
  <separator name="writing" >
   <i type="int" name="NWRITE">     2</i>
   <i type="logical" name="LWAVE"> F  </i>
   <i type="logical" name="LDOWNSAMPLE"> F  </i>
   <i type="logical" name="LCHARG"> F  </i>
   <i type="logical" name="LPARD"> F  </i>
   <i type="logical" name="LVTOT"> F  </i>
   <i type="logical" name="LVHAR"> F  </i>
   <i type="logical" name="LELF"> F  </i>
   <i type="logical" name="LOPTICS"> F  </i>
   <v name="STM">      0.00000000      0.00000000      0.00000000      0.00000000      0.00000000      0.00000000      0.00000000</v>
  </separator>
  <separator name="performance" >
   <i type="int" name="NPAR">     8</i>
   <i type="int" name="NSIM">     4</i>
   <i type="int" name="NBLK">    -1</i>
   <i type="logical" name="LPLANE"> T  </i>
   <i type="logical" name="LSCALAPACK"> T  </i>
   <i type="logical" name="LSCAAWARE"> F  </i>
   <i type="logical" name="LSCALU"> F  </i>
   <i type="logical" name="LASYNC"> F  </i>
   <i type="logical" name="LORBITALREAL"> F  </i>
  </separator>
  <separator name="miscellaneous" >
   <i type="int" name="IDIOT">     3</i>
   <i type="int" name="PHON_NSTRUCT">    -1</i>
   <i type="logical" name="LMUSIC"> F  </i>
   <v name="POMASS">     12.01100000     28.08500000</v>
   <v name="DARWINR">      0.00000000      0.00000000</v>
   <v name="DARWINV">      1.00000000      1.00000000</v>
   <i type="logical" name="LCORR"> T  </i>
  </separator>
  <i type="logical" name="GGA_COMPAT"> T  </i>
  <i type="logical" name="LBERRY"> F  </i>
  <i type="int" name="ICORELEVEL">     0</i>
  <i type="logical" name="LDAU"> F  </i>
  <i type="int" name="I_CONSTRAINED_M">     0</i>
  <separator name="electronic exchange-correlation" >
   <i type="string" name="GGA">PE</i>
   <i type="int" name="VOSKOWN">     0</i>
   <i type="logical" name="LHFCALC"> F  </i>
   <i type="string" name="PRECFOCK"></i>
   <i type="logical" name="LSYMGRAD"> F  </i>
   <i type="logical" name="LHFONE"> F  </i>
   <i type="logical" name="LRHFCALC"> F  </i>
   <i type="logical" name="LTHOMAS"> F  </i>
   <i type="logical" name="LMODELHF"> F  </i>
   <i type="logical" name="LFOCKACE"> F  </i>
   <i name="ENCUT4O">     -1.00000000</i>
   <i type="int" name="EXXOEP">     0</i>
   <i type="int" name="FOURORBIT">     0</i>
   <i name="AEXX">      0.00000000</i>
   <i name="HFALPHA">      0.00000000</i>
   <i name="MCALPHA">      0.00000000</i>
   <i name="ALDAX">      1.00000000</i>
   <i name="AGGAX">      1.00000000</i>
   <i name="ALDAC">      1.00000000</i>
   <i name="AGGAC">      1.00000000</i>
   <i type="int" name="NKREDX">     1</i>
   <i type="int" name="NKREDY">     1</i>
   <i type="int" name="NKREDZ">     1</i>
   <i type="logical" name="SHIFTRED"> F  </i>
   <i type="logical" name="ODDONLY"> F  </i>
   <i type="logical" name="EVENONLY"> F  </i>
   <i type="int" name="LMAXFOCK">     0</i>
   <i type="int" name="NMAXFOCKAE">     0</i>
   <i type="logical" name="LFOCKAEDFT"> F  </i>
   <i name="HFSCREEN">      0.00000000</i>
   <i name="HFSCREENC">      0.00000000</i>
   <i type="int" name="NBANDSGWLOW">     0</i>
  </separator>
  <separator name="vdW DFT" >
   <i type="logical" name="LUSE_VDW"> F  </i>
   <i name="Zab_VDW">     -0.84910000</i>
   <i name="PARAM1">      0.12340000</i>
   <i name="PARAM2">      1.00000000</i>
   <i name="PARAM3">      0.00000000</i>
  </separator>
  <separator name="model GW" >
   <i type="int" name="MODEL_GW">     0</i>
   <i name="MODEL_EPS0">      6.26613487</i>
   <i name="MODEL_ALPHA">      1.00000000</i>
  </separator>
  <separator name="linear response parameters" >
   <i type="logical" name="LEPSILON"> F  </i>
   <i type="logical" name="LRPA"> F  </i>
   <i type="logical" name="LNABLA"> F  </i>
   <i type="logical" name="LVEL"> F  </i>
   <i type="int" name="KINTER">     0</i>
   <i name="CSHIFT">      0.10000000</i>
   <i name="OMEGAMAX">     -1.00000000</i>
   <i name="DEG_THRESHOLD">      0.00200000</i>
   <i name="RTIME">     -0.10000000</i>
   <i name="WPLASMAI">      0.00000000</i>
   <v name="DFIELD">      0.00000000      0.00000000      0.00000000</v>
   <v name="WPLASMA">      0.00000000      0.00000000      0.00000000      0.00000000      0.00000000      0.00000000      0.00000000      0.00000000      0.00000000</v>
  </separator>
  <separator name="orbital magnetization" >
   <i type="logical" name="NUCIND"> F  </i>
   <v name="MAGPOS">      0.00000000      0.00000000      0.00000000</v>
   <i type="logical" name="LNICSALL"> T  </i>
   <i type="logical" name="ORBITALMAG"> F  </i>
   <i type="logical" name="LMAGBLOCH"> F  </i>
   <i type="logical" name="LCHIMAG"> F  </i>
   <i type="logical" name="LGAUGE"> T  </i>
   <i type="int" name="MAGATOM">     0</i>
   <v name="MAGDIPOL">      0.00000000      0.00000000      0.00000000</v>
   <v name="AVECCONST">      0.00000000      0.00000000      0.00000000</v>
  </separator>
  <separator name="response functions" >
   <i type="logical" name="LFINITE_TEMPERATURE"> F  </i>
   <i type="logical" name="LADDER"> F  </i>
   <i type="logical" name="LRPAFORCE"> F  </i>
   <i type="logical" name="LFXC"> F  </i>
   <i type="logical" name="LHARTREE"> T  </i>
   <i type="int" name="IBSE">     0</i>
   <v type="int" name="KPOINT">    -1     0     0     0</v>
   <i type="logical" name="LTCTC"> F  </i>
   <i type="logical" name="LTCTE"> F  </i>
   <i type="logical" name="LTETE"> F  </i>
   <i type="logical" name="LTRIPLET"> F  </i>
   <i type="logical" name="LFXCEPS"> F  </i>
   <i type="logical" name="LFXHEG"> F  </i>
   <i type="int" name="NATURALO">     2</i>
   <i type="logical" name="LHOLEGF"> F  </i>
   <i type="logical" name="L2ORDER"> F  </i>
   <i type="logical" name="LDMP1"> F  </i>
   <i type="logical" name="LMP2LT"> F  </i>
   <i type="logical" name="LSMP2LT"> F  </i>
   <i type="logical" name="LGWLF"> F  </i>
   <i name="ENCUTGW">     -2.00000000</i>
   <i name="ENCUTGWSOFT">     -2.00000000</i>
   <i name="ENCUTLF">     -1.00000000</i>
   <i type="logical" name="LESF_SPLINES"> F  </i>
   <i type="int" name="LMAXMP2">    -1</i>
   <i name="SCISSOR">      0.00000000</i>
   <i type="int" name="NOMEGA">     0</i>
   <i type="int" name="NOMEGAR">     0</i>
   <i type="int" name="NBANDSGW">    -1</i>
   <i type="int" name="NBANDSO">    -1</i>
   <i type="int" name="NBANDSV">    -1</i>
   <i type="int" name="NELM">    60</i>
   <i type="int" name="NELMHF">     1</i>
   <i type="int" name="DIM">     3</i>
   <i type="int" name="IESPILON">     4</i>
   <i type="int" name="ANTIRES">     0</i>
   <i name="OMEGAMAX">    -30.00000000</i>
   <i name="OMEGAMIN">    -30.00000000</i>
   <i name="OMEGATL">   -200.00000000</i>
   <i type="int" name="OMEGAGRID">     0</i>
   <i name="CSHIFT">     -0.10000000</i>
   <i type="logical" name="LSELFENERGY"> F  </i>
   <i type="logical" name="LSPECTRAL"> F  </i>
   <i type="logical" name="LSPECTRALGW"> F  </i>
   <i type="logical" name="LSINGLES"> F  </i>
   <i type="logical" name="LFERMIGW"> F  </i>
   <i type="logical" name="ODDONLYGW"> F  </i>
   <i type="logical" name="EVENONLYGW"> F  </i>
   <i type="int" name="NKREDLFX">     1</i>
   <i type="int" name="NKREDLFY">     1</i>
   <i type="int" name="NKREDLFZ">     1</i>
   <i type="int" name="MAXMEM">  2800</i>
   <i type="int" name="TELESCOPE">     0</i>
   <i type="int" name="NTAUPAR">    -1</i>
   <i type="int" name="NOMEGAPAR">    -1</i>
   <i name="DAMP_NEWTON">      0.80000001</i>
   <i name="LAMBDA">      1.00000000</i>
  </separator>
  <separator name="External order field" >
   <i name="OFIELD_KAPPA">      0.00000000</i>
   <v name="OFIELD_K">      0.00000000      0.00000000      0.00000000</v>
   <i name="OFIELD_Q6_NEAR">      0.00000000</i>
   <i name="OFIELD_Q6_FAR">      0.00000000</i>
   <i name="OFIELD_A">      0.00000000</i>
  </separator>
 </parameters>
 <atominfo>
  <atoms>      64 </atoms>
  <types>       2 </types>
  <array name="atoms" >
   <dimension dim="1">ion</dimension>
   <field type="string">element</field>
   <field type="int">atomtype</field>
   <set>
    <rc><c>C </c><c>   1</c></rc>
    <rc><c>C </c><c>   1</c></rc>
    <rc><c>C </c><c>   1</c></rc>
    <rc><c>C </c><c>   1</c></rc>
    <rc><c>C </c><c>   1</c></rc>
    <rc><c>C </c><c>   1</c></rc>
    <rc><c>C </c><c>   1</c></rc>
    <rc><c>C </c><c>   1</c></rc>
    <rc><c>C </c><c>   1</c></rc>
    <rc><c>C </c><c>   1</c></rc>
    <rc><c>C </c><c>   1</c></rc>
    <rc><c>C </c><c>   1</c></rc>
    <rc><c>C </c><c>   1</c></rc>
    <rc><c>C </c><c>   1</c></rc>
    <rc><c>C </c><c>   1</c></rc>
    <rc><c>C </c><c>   1</c></rc>
    <rc><c>C </c><c>   1</c></rc>
    <rc><c>C </c><c>   1</c></rc>
    <rc><c>C </c><c>   1</c></rc>
    <rc><c>C </c><c>   1</c></rc>
    <rc><c>C </c><c>   1</c></rc>
    <rc><c>C </c><c>   1</c></rc>
    <rc><c>C </c><c>   1</c></rc>
    <rc><c>C </c><c>   1</c></rc>
    <rc><c>C </c><c>   1</c></rc>
    <rc><c>C </c><c>   1</c></rc>
    <rc><c>C </c><c>   1</c></rc>
    <rc><c>C </c><c>   1</c></rc>
    <rc><c>C </c><c>   1</c></rc>
    <rc><c>C </c><c>   1</c></rc>
    <rc><c>C </c><c>   1</c></rc>
    <rc><c>C </c><c>   1</c></rc>
    <rc><c>Si</c><c>   2</c></rc>
    <rc><c>Si</c><c>   2</c></rc>
    <rc><c>Si</c><c>   2</c></rc>
    <rc><c>Si</c><c>   2</c></rc>
    <rc><c>Si</c><c>   2</c></rc>
    <rc><c>Si</c><c>   2</c></rc>
    <rc><c>Si</c><c>   2</c></rc>
    <rc><c>Si</c><c>   2</c></rc>
    <rc><c>Si</c><c>   2</c></rc>
    <rc><c>Si</c><c>   2</c></rc>
    <rc><c>Si</c><c>   2</c></rc>
    <rc><c>Si</c><c>   2</c></rc>
    <rc><c>Si</c><c>   2</c></rc>
    <rc><c>Si</c><c>   2</c></rc>
    <rc><c>Si</c><c>   2</c></rc>
    <rc><c>Si</c><c>   2</c></rc>
    <rc><c>Si</c><c>   2</c></rc>
    <rc><c>Si</c><c>   2</c></rc>
    <rc><c>Si</c><c>   2</c></rc>
    <rc><c>Si</c><c>   2</c></rc>
    <rc><c>Si</c><c>   2</c></rc>
    <rc><c>Si</c><c>   2</c></rc>
    <rc><c>Si</c><c>   2</c></rc>
    <rc><c>Si</c><c>   2</c></rc>
    <rc><c>Si</c><c>   2</c></rc>
    <rc><c>Si</c><c>   2</c></rc>
    <rc><c>Si</c><c>   2</c></rc>
    <rc><c>Si</c><c>   2</c></rc>
    <rc><c>Si</c><c>   2</c></rc>
    <rc><c>Si</c><c>   2</c></rc>
    <rc><c>Si</c><c>   2</c></rc>
    <rc><c>Si</c><c>   2</c></rc>
   </set>
  </array>
  <array name="atomtypes" >
   <dimension dim="1">type</dimension>
   <field type="int">atomspertype</field>
   <field type="string">element</field>
   <field>mass</field>
   <field>valence</field>
   <field type="string">pseudopotential</field>
   <set>
    <rc><c>  32</c><c>C </c><c>     12.01100000</c><c>      4.00000000</c><c>  PAW_PBE C 08Apr2002                   </c></rc>
    <rc><c>  32</c><c>Si</c><c>     28.08500000</c><c>      4.00000000</c><c>  PAW_PBE Si 05Jan2001                  </c></rc>
   </set>
  </array>
 </atominfo>
 <structure name="initialpos" >
  <crystal>
   <varray name="basis" >
    <v>       8.74331558       0.00000000       0.00000000 </v>
    <v>       0.00000000       8.74331558       0.00000000 </v>
    <v>       0.00000000       0.00000000       8.74331558 </v>
   </varray>
   <i name="volume">    668.38771987 </i>
   <varray name="rec_basis" >
    <v>       0.11437309       0.00000000       0.00000000 </v>
    <v>       0.00000000       0.11437309       0.00000000 </v>
    <v>       0.00000000       0.00000000       0.11437309 </v>
   </varray>
  </crystal>
  <varray name="positions" >
   <v>       0.12622119       0.12260879       0.12780032 </v>
   <v>       0.12574054       0.37244283       0.37621400 </v>
   <v>       0.37298779       0.12375931       0.37293039 </v>
   <v>       0.37415919       0.37511448       0.12543004 </v>
   <v>       0.12666223       0.12557543       0.62274323 </v>
   <v>       0.12505331       0.37620970       0.87656537 </v>
   <v>       0.37409495       0.12275525       0.87804097 </v>
   <v>       0.37556078       0.37539179       0.62703830 </v>
   <v>       0.12680216       0.62571285       0.12710372 </v>
   <v>       0.12498588       0.87621125       0.37241207 </v>
   <v>       0.37550052       0.62824592       0.37160319 </v>
   <v>       0.37180742       0.87940365       0.12537148 </v>
   <v>       0.12255753       0.62586281       0.62715219 </v>
   <v>       0.12417480       0.87418369       0.87376204 </v>
   <v>       0.37173476       0.62636133       0.87180329 </v>
   <v>       0.37546870       0.87437829       0.62625680 </v>
   <v>       0.62094609       0.11932106       0.12060159 </v>
   <v>       0.62575746       0.37370829       0.37410114 </v>
   <v>       0.87296007       0.12812808       0.37560290 </v>
   <v>       0.87331130       0.37802479       0.12313536 </v>
   <v>       0.62813966       0.12678115       0.62803594 </v>
   <v>       0.62328974       0.37608932       0.86990885 </v>
   <v>       0.87589606       0.12399681       0.87450596 </v>
   <v>       0.87112608       0.37467100       0.62305893 </v>
   <v>       0.62397226       0.62661042       0.12486936 </v>
   <v>       0.62070013       0.87659072       0.37866256 </v>
   <v>       0.87749379       0.62411107       0.37490674 </v>
   <v>       0.87548958       0.87126173       0.12154665 </v>
   <v>       0.62782693       0.63011543       0.62276290 </v>
   <v>       0.62576996       0.87881419       0.87496555 </v>
   <v>       0.87460532       0.62693156       0.87420995 </v>
   <v>       0.87304193       0.87050595       0.62107462 </v>
   <v>       0.99798277       0.00008529       0.00102846 </v>
   <v>       0.00438980       0.25027342       0.25050048 </v>
   <v>       0.25151546       0.99997831       0.25203468 </v>
   <v>       0.24765888       0.24645813       0.00145810 </v>
   <v>       0.00043286       0.99959208       0.50045284 </v>
   <v>       0.99767342       0.25052117       0.74990906 </v>
   <v>       0.24875276       0.99975776       0.75373392 </v>
   <v>       0.25278702       0.24766679       0.50139677 </v>
   <v>       0.00129195       0.49657606       0.99861842 </v>
   <v>       0.00302692       0.74730211       0.24984120 </v>
   <v>       0.24957409       0.49959566       0.24439961 </v>
   <v>       0.24932890       0.74940931       0.99810825 </v>
   <v>       0.99860210       0.49927643       0.50049511 </v>
   <v>       0.99639786       0.74697003       0.74821020 </v>
   <v>       0.25038503       0.50307599       0.74771759 </v>
   <v>       0.24873959       0.75212583       0.50007651 </v>
   <v>       0.49815523       0.99885926       0.99877775 </v>
   <v>       0.49976102       0.25035745       0.24950024 </v>
   <v>       0.75044148       0.99972715       0.25237740 </v>
   <v>       0.74858067       0.25454662       0.00410682 </v>
   <v>       0.49855464       0.99998475       0.49894721 </v>
   <v>       0.49794368       0.24970738       0.74916545 </v>
   <v>       0.75162726       0.00104343       0.75232957 </v>
   <v>       0.74662969       0.25049036       0.49940528 </v>
   <v>       0.49894753       0.50377606       0.00195990 </v>
   <v>       0.50395439       0.75073044       0.24974872 </v>
   <v>       0.74732009       0.50044355       0.24951995 </v>
   <v>       0.75079154       0.75134925       0.00139801 </v>
   <v>       0.50007682       0.49970444       0.50254718 </v>
   <v>       0.49953275       0.74871637       0.75049683 </v>
   <v>       0.74941654       0.49893874       0.74961150 </v>
   <v>       0.75425971       0.75048264       0.49980264 </v>
  </varray>
 </structure>
 <calculation>
  <scstep>
   <time name="dav">   16.27   16.30</time>
   <time name="total">   16.35   16.37</time>
   <energy>
    <i name="alphaZ">    354.85177120 </i>
    <i name="ewald">  -9081.62841135 </i>
    <i name="hartreedc">   -671.75278745 </i>
    <i name="XCdc">    145.84423906 </i>
    <i name="pawpsdc">   6292.66707184 </i>
    <i name="pawaedc">  -5747.90303932 </i>
    <i name="eentropy">      0.01237478 </i>
    <i name="bandstr">   1370.81358289 </i>
    <i name="atom">   8006.17504320 </i>
    <i name="e_fr_energy">    669.07984486 </i>
    <i name="e_wo_entrp">    669.06747007 </i>
    <i name="e_0_energy">    669.07571993 </i>
   </energy>
  </scstep>
  <scstep>
   <time name="dav">   16.75   16.78</time>
   <time name="total">   16.75   16.78</time>
   <energy>
    <i name="e_fr_energy">   -462.20357913 </i>
    <i name="e_wo_entrp">   -462.21546538 </i>
    <i name="e_0_energy">   -462.20754121 </i>
   </energy>
  </scstep>
  <scstep>
   <time name="dav">   16.05   16.10</time>
   <time name="total">   16.06   16.10</time>
   <energy>
    <i name="e_fr_energy">   -537.80076529 </i>
    <i name="e_wo_entrp">   -537.82091438 </i>
    <i name="e_0_energy">   -537.80748166 </i>
   </energy>
  </scstep>
  <scstep>
   <time name="dav">   15.89   15.91</time>
   <time name="total">   15.89   15.92</time>
   <energy>
    <i name="e_fr_energy">   -539.48129678 </i>
    <i name="e_wo_entrp">   -539.50216484 </i>
    <i name="e_0_energy">   -539.48825280 </i>
   </energy>
  </scstep>
  <scstep>
   <time name="dav">   16.64   16.75</time>
   <time name="total">   16.89   16.99</time>
   <energy>
    <i name="e_fr_energy">   -539.52721063 </i>
    <i name="e_wo_entrp">   -539.54809788 </i>
    <i name="e_0_energy">   -539.53417305 </i>
   </energy>
  </scstep>
  <scstep>
   <time name="dav">   16.35   16.39</time>
   <time name="total">   16.67   16.71</time>
   <energy>
    <i name="e_fr_energy">   -482.86057525 </i>
    <i name="e_wo_entrp">   -482.87123955 </i>
    <i name="e_0_energy">   -482.86413001 </i>
   </energy>
  </scstep>
  <scstep>
   <time name="dav">   17.43   17.48</time>
   <time name="total">   18.13   18.19</time>
   <energy>
    <i name="e_fr_energy">   -481.50705826 </i>
    <i name="e_wo_entrp">   -481.51665723 </i>
    <i name="e_0_energy">   -481.51025792 </i>
   </energy>
  </scstep>
  <scstep>
   <time name="dav">   15.05   15.10</time>
   <time name="total">   15.39   15.43</time>
   <energy>
    <i name="e_fr_energy">   -481.27831555 </i>
    <i name="e_wo_entrp">   -481.28811858 </i>
    <i name="e_0_energy">   -481.28158323 </i>
   </energy>
  </scstep>
  <scstep>
   <time name="dav">   16.50   16.57</time>
   <time name="total">   17.18   17.28</time>
   <energy>
    <i name="e_fr_energy">   -481.26210004 </i>
    <i name="e_wo_entrp">   -481.27179117 </i>
    <i name="e_0_energy">   -481.26533042 </i>
   </energy>
  </scstep>
  <scstep>
   <time name="dav">   16.00   16.10</time>
   <time name="total">   16.36   16.46</time>
   <energy>
    <i name="e_fr_energy">   -481.26509560 </i>
    <i name="e_wo_entrp">   -481.27477669 </i>
    <i name="e_0_energy">   -481.26832263 </i>
   </energy>
  </scstep>
  <scstep>
   <time name="dav">   14.54   14.57</time>
   <time name="total">   15.10   15.15</time>
   <energy>
    <i name="e_fr_energy">   -481.26614927 </i>
    <i name="e_wo_entrp">   -481.27583396 </i>
    <i name="e_0_energy">   -481.26937750 </i>
   </energy>
  </scstep>
  <scstep>
   <time name="dav">   17.41   17.44</time>
   <time name="total">   17.76   17.79</time>
   <energy>
    <i name="e_fr_energy">   -481.26616325 </i>
    <i name="e_wo_entrp">   -481.27584642 </i>
    <i name="e_0_energy">   -481.26939097 </i>
   </energy>
  </scstep>
  <scstep>
   <time name="dav">   14.67   14.71</time>
   <time name="total">   15.03   15.11</time>
   <energy>
    <i name="e_fr_energy">   -481.26617470 </i>
    <i name="e_wo_entrp">   -481.27585912 </i>
    <i name="e_0_energy">   -481.26940284 </i>
   </energy>
  </scstep>
  <scstep>
   <time name="dav">   15.12   15.17</time>
   <time name="total">   15.48   15.52</time>
   <energy>
    <i name="e_fr_energy">   -481.26618124 </i>
    <i name="e_wo_entrp">   -481.27586572 </i>
    <i name="e_0_energy">   -481.26940940 </i>
   </energy>
  </scstep>
  <scstep>
   <time name="dav">   16.50   16.68</time>
   <time name="total">   17.07   17.36</time>
   <energy>
    <i name="e_fr_energy">   -481.26618301 </i>
    <i name="e_wo_entrp">   -481.27586730 </i>
    <i name="e_0_energy">   -481.26941110 </i>
   </energy>
  </scstep>
  <scstep>
   <time name="dav">   15.92   15.96</time>
   <time name="total">   16.28   16.33</time>
   <energy>
    <i name="e_fr_energy">   -481.26618279 </i>
    <i name="e_wo_entrp">   -481.27586712 </i>
    <i name="e_0_energy">   -481.26941090 </i>
   </energy>
  </scstep>
  <scstep>
   <time name="dav">   15.88   15.92</time>
   <time name="total">   16.50   16.58</time>
   <energy>
    <i name="e_fr_energy">   -481.26618306 </i>
    <i name="e_wo_entrp">   -481.27586735 </i>
    <i name="e_0_energy">   -481.26941115 </i>
   </energy>
  </scstep>
  <scstep>
   <time name="dav">    9.27    9.30</time>
   <time name="total">    9.61    9.64</time>
   <energy>
    <i name="e_fr_energy">   -481.26618304 </i>
    <i name="e_wo_entrp">   -481.27586733 </i>
    <i name="e_0_energy">   -481.26941113 </i>
   </energy>
  </scstep>
  <scstep>
   <time name="dav">    9.64    9.66</time>
   <time name="total">    9.98   10.01</time>
   <energy>
    <i name="e_fr_energy">   -481.26618301 </i>
    <i name="e_wo_entrp">   -481.27586728 </i>
    <i name="e_0_energy">   -481.26941110 </i>
   </energy>
  </scstep>
  <scstep>
   <time name="dav">    9.41    9.43</time>
   <time name="total">    9.49    9.54</time>
   <energy>
    <i name="alphaZ">    354.85177120 </i>
    <i name="ewald">  -9081.62841135 </i>
    <i name="hartreedc">  -1024.59534606 </i>
    <i name="XCdc">    179.29025909 </i>
    <i name="pawpsdc">  33049.41519358 </i>
    <i name="pawaedc"> -32510.35195189 </i>
    <i name="eentropy">      0.00968428 </i>
    <i name="bandstr">    545.56757494 </i>
    <i name="atom">   8006.17504320 </i>
    <i name="e_fr_energy">   -481.26618301 </i>
    <i name="e_wo_entrp">   -481.27586729 </i>
    <i name="e_0_energy">   -481.26941111 </i>
   </energy>
  </scstep>
  <structure>
   <crystal>
    <varray name="basis" >
     <v>       8.74331558       0.00000000       0.00000000 </v>
     <v>       0.00000000       8.74331558       0.00000000 </v>
     <v>       0.00000000       0.00000000       8.74331558 </v>
    </varray>
    <i name="volume">    668.38771987 </i>
    <varray name="rec_basis" >
     <v>       0.11437309       0.00000000       0.00000000 </v>
     <v>       0.00000000       0.11437309       0.00000000 </v>
     <v>       0.00000000       0.00000000       0.11437309 </v>
    </varray>
   </crystal>
   <varray name="positions" >
    <v>       0.12622119       0.12260879       0.12780032 </v>
    <v>       0.12574054       0.37244283       0.37621400 </v>
    <v>       0.37298779       0.12375931       0.37293039 </v>
    <v>       0.37415919       0.37511448       0.12543004 </v>
    <v>       0.12666223       0.12557543       0.62274323 </v>
    <v>       0.12505331       0.37620970       0.87656537 </v>
    <v>       0.37409495       0.12275525       0.87804097 </v>
    <v>       0.37556078       0.37539179       0.62703830 </v>
    <v>       0.12680216       0.62571285       0.12710372 </v>
    <v>       0.12498588       0.87621125       0.37241207 </v>
    <v>       0.37550052       0.62824592       0.37160319 </v>
    <v>       0.37180742       0.87940365       0.12537148 </v>
    <v>       0.12255753       0.62586281       0.62715219 </v>
    <v>       0.12417480       0.87418369       0.87376204 </v>
    <v>       0.37173476       0.62636133       0.87180329 </v>
    <v>       0.37546870       0.87437829       0.62625680 </v>
    <v>       0.62094609       0.11932106       0.12060159 </v>
    <v>       0.62575746       0.37370829       0.37410114 </v>
    <v>       0.87296007       0.12812808       0.37560290 </v>
    <v>       0.87331130       0.37802479       0.12313536 </v>
    <v>       0.62813966       0.12678115       0.62803594 </v>
    <v>       0.62328974       0.37608932       0.86990885 </v>
    <v>       0.87589606       0.12399681       0.87450596 </v>
    <v>       0.87112608       0.37467100       0.62305893 </v>
    <v>       0.62397226       0.62661042       0.12486936 </v>
    <v>       0.62070013       0.87659072       0.37866256 </v>
    <v>       0.87749379       0.62411107       0.37490674 </v>
    <v>       0.87548958       0.87126173       0.12154665 </v>
    <v>       0.62782693       0.63011543       0.62276290 </v>
    <v>       0.62576996       0.87881419       0.87496555 </v>
    <v>       0.87460532       0.62693156       0.87420995 </v>
    <v>       0.87304193       0.87050595       0.62107462 </v>
    <v>       0.99798277       0.00008529       0.00102846 </v>
    <v>       0.00438980       0.25027342       0.25050048 </v>
    <v>       0.25151546       0.99997831       0.25203468 </v>
    <v>       0.24765888       0.24645813       0.00145810 </v>
    <v>       0.00043286       0.99959208       0.50045284 </v>
    <v>       0.99767342       0.25052117       0.74990906 </v>
    <v>       0.24875276       0.99975776       0.75373392 </v>
    <v>       0.25278702       0.24766679       0.50139677 </v>
    <v>       0.00129195       0.49657606       0.99861842 </v>
    <v>       0.00302692       0.74730211       0.24984120 </v>
    <v>       0.24957409       0.49959566       0.24439961 </v>
    <v>       0.24932890       0.74940931       0.99810825 </v>
    <v>       0.99860210       0.49927643       0.50049511 </v>
    <v>       0.99639786       0.74697003       0.74821020 </v>
    <v>       0.25038503       0.50307599       0.74771759 </v>
    <v>       0.24873959       0.75212583       0.50007651 </v>
    <v>       0.49815523       0.99885926       0.99877775 </v>
    <v>       0.49976102       0.25035745       0.24950024 </v>
    <v>       0.75044148       0.99972715       0.25237740 </v>
    <v>       0.74858067       0.25454662       0.00410682 </v>
    <v>       0.49855464       0.99998475       0.49894721 </v>
    <v>       0.49794368       0.24970738       0.74916545 </v>
    <v>       0.75162726       0.00104343       0.75232957 </v>
    <v>       0.74662969       0.25049036       0.49940528 </v>
    <v>       0.49894753       0.50377606       0.00195990 </v>
    <v>       0.50395439       0.75073044       0.24974872 </v>
    <v>       0.74732009       0.50044355       0.24951995 </v>
    <v>       0.75079154       0.75134925       0.00139801 </v>
    <v>       0.50007682       0.49970444       0.50254718 </v>
    <v>       0.49953275       0.74871637       0.75049683 </v>
    <v>       0.74941654       0.49893874       0.74961150 </v>
    <v>       0.75425971       0.75048264       0.49980264 </v>
   </varray>
  </structure>
  <varray name="forces" >
   <v>      -0.44420200       0.19821601      -0.31068205 </v>
   <v>       0.28908715       0.61836402      -0.08212194 </v>
   <v>       0.66882621       0.43666349       0.57139755 </v>
   <v>       0.18596614      -0.16940354      -0.44188785 </v>
   <v>      -0.32574747      -0.17340911       0.74980437 </v>
   <v>       0.21018477      -0.47688246      -0.57776367 </v>
   <v>      -0.12701738       0.55537456      -0.61209623 </v>
   <v>      -0.21400109      -0.03188024      -0.39236143 </v>
   <v>      -0.32781504      -0.43853253      -0.97278575 </v>
   <v>      -0.13787017      -0.12566183       0.51032688 </v>
   <v>      -0.16274634      -0.73285147       0.53543685 </v>
   <v>       0.68891744      -1.11375793      -0.27383098 </v>
   <v>       0.30408882      -0.27982617      -0.74878706 </v>
   <v>      -0.50949291      -0.04309398       0.17285966 </v>
   <v>       0.66639646      -0.12420292       0.65114551 </v>
   <v>      -0.31481826       0.31144513      -0.01413664 </v>
   <v>       0.84165209       1.25049594       1.00009283 </v>
   <v>      -0.51937703       0.29318321       0.05552945 </v>
   <v>       0.42116219      -0.43960298      -0.15617504 </v>
   <v>       0.42754644      -0.37884190       0.64689775 </v>
   <v>      -0.85601574      -0.35206746      -0.56477848 </v>
   <v>      -0.10313856       0.12669494       1.25160763 </v>
   <v>      -0.10266139       0.56601860       0.50711116 </v>
   <v>       0.49516429       0.05612910       0.26862134 </v>
   <v>       0.30750213      -0.02087888      -0.03385551 </v>
   <v>       1.27707096      -0.35704291      -0.66698299 </v>
   <v>      -0.46754870       0.05420002      -0.29309661 </v>
   <v>       0.10572387       0.55671869       1.22347348 </v>
   <v>      -0.38021993      -1.02487787       0.42618587 </v>
   <v>      -0.24616743      -0.91760372       0.09019571 </v>
   <v>      -0.14185794      -0.74238512       0.31694851 </v>
   <v>       0.68902960       1.22626808       0.91492877 </v>
   <v>       0.49895417      -0.24984649      -0.20878618 </v>
   <v>      -0.96205120      -0.03007806       0.04631873 </v>
   <v>      -0.41329999      -0.16889504      -0.38095720 </v>
   <v>       0.41123482       0.46769293      -0.15611194 </v>
   <v>      -0.22610503       0.11883980      -0.28740918 </v>
   <v>       0.37825259      -0.00108202      -0.24013438 </v>
   <v>       0.13403302      -0.11706975      -0.67456523 </v>
   <v>      -0.36383104       0.45915976      -0.35030488 </v>
   <v>      -0.33206165       1.19003808       0.19893722 </v>
   <v>      -0.40871546       0.46606614      -0.10671337 </v>
   <v>       0.24033111       0.10202606       1.45828963 </v>
   <v>      -0.11943291       0.53035359       0.39448266 </v>
   <v>       0.33962557      -0.25651393      -0.03908894 </v>
   <v>       0.39504688       0.72880792       0.34443782 </v>
   <v>      -0.43490284      -0.61002723       0.38210618 </v>
   <v>       0.22784102      -0.27626166      -0.14526515 </v>
   <v>      -0.05180488      -0.16220481       0.05407523 </v>
   <v>      -0.04718747      -0.45079218      -0.23790010 </v>
   <v>      -0.28752286      -0.12227170      -0.49361168 </v>
   <v>      -0.33724265      -1.01422319      -1.10339298 </v>
   <v>       0.09847768       0.24094402       0.79941823 </v>
   <v>       0.25892573      -0.26161888       0.52640191 </v>
   <v>      -0.14295760      -0.31611850      -0.58552051 </v>
   <v>       0.48510111      -0.13437406       0.14222938 </v>
   <v>      -0.16893825      -0.67350625      -0.84401478 </v>
   <v>      -1.11822664       0.53595276       0.09447892 </v>
   <v>       0.58310886       0.11854095       0.18279275 </v>
   <v>      -0.29955395      -0.18609730      -0.72598992 </v>
   <v>       0.05587325       0.62520326      -0.71501774 </v>
   <v>       0.46743554       0.65766346      -0.26077834 </v>
   <v>      -0.02302350       0.61985041      -0.20502386 </v>
   <v>      -1.03500464      -0.13712687      -0.61460338 </v>
  </varray>
  <varray name="stress" >
   <v>       3.42771827       3.68614964      -1.55681389 </v>
   <v>       3.68614963       2.98520287       2.69926456 </v>
   <v>      -1.55681390       2.69926453       2.85194784 </v>
  </varray>
  <energy>
   <i name="e_fr_energy">   -481.26618301 </i>
   <i name="e_wo_entrp">   -481.27586729 </i>
   <i name="e_0_energy">   -481.26941111 </i>
  </energy>
  <time name="totalsc">  319.72  321.07</time>
  <eigenvalues>
   <array>
    <dimension dim="1">band</dimension>
    <dimension dim="2">kpoint</dimension>
    <dimension dim="3">spin</dimension>
    <field>eigene</field>
    <field>occ</field>
    <set>
     <set comment="spin 1">
      <set comment="kpoint 1">
       <r>   -7.3375    1.0000 </r>
       <r>   -5.8091    1.0000 </r>
       <r>   -5.7784    1.0000 </r>
       <r>   -5.7667    1.0000 </r>
       <r>   -5.7564    1.0000 </r>
       <r>   -5.7292    1.0000 </r>
       <r>   -5.6959    1.0000 </r>
       <r>   -4.4431    1.0000 </r>
       <r>   -4.4109    1.0000 </r>
       <r>   -4.3889    1.0000 </r>
       <r>   -4.3840    1.0000 </r>
       <r>   -4.3608    1.0000 </r>
       <r>   -4.3483    1.0000 </r>
       <r>   -4.3331    1.0000 </r>
       <r>   -4.3330    1.0000 </r>
       <r>   -4.2960    1.0000 </r>
       <r>   -4.2883    1.0000 </r>
       <r>   -4.2640    1.0000 </r>
       <r>   -4.2182    1.0000 </r>
       <r>   -3.8195    1.0000 </r>
       <r>   -3.8048    1.0000 </r>
       <r>   -3.7911    1.0000 </r>
       <r>   -3.7708    1.0000 </r>
       <r>   -2.3902    1.0000 </r>
       <r>   -2.3677    1.0000 </r>
       <r>   -2.3407    1.0000 </r>
       <r>   -2.1765    1.0000 </r>
       <r>   -2.1720    1.0000 </r>
       <r>   -2.1424    1.0000 </r>
       <r>   -2.1207    1.0000 </r>
       <r>   -2.1112    1.0000 </r>
       <r>   -2.0569    1.0000 </r>
       <r>   -0.5204    1.0000 </r>
       <r>   -0.4944    1.0000 </r>
       <r>   -0.4855    1.0000 </r>
       <r>   -0.4522    1.0000 </r>
       <r>    0.2296    1.0000 </r>
       <r>    0.2360    1.0000 </r>
       <r>    0.2404    1.0000 </r>
       <r>    0.9405    1.0000 </r>
       <r>    0.9600    1.0000 </r>
       <r>    0.9818    1.0000 </r>
       <r>    0.9913    1.0000 </r>
       <r>    1.0174    1.0000 </r>
       <r>    1.0429    1.0000 </r>
       <r>    1.9960    1.0000 </r>
       <r>    2.0057    1.0000 </r>
       <r>    2.0231    1.0000 </r>
       <r>    2.0507    1.0000 </r>
       <r>    2.0636    1.0000 </r>
       <r>    2.0707    1.0000 </r>
       <r>    2.0801    1.0000 </r>
       <r>    2.0902    1.0000 </r>
       <r>    2.1032    1.0000 </r>
       <r>    2.1303    1.0000 </r>
       <r>    2.1441    1.0000 </r>
       <r>    2.1580    1.0000 </r>
       <r>    3.0167    1.0000 </r>
       <r>    3.0267    1.0000 </r>
       <r>    3.0403    1.0000 </r>
       <r>    3.0463    1.0000 </r>
       <r>    3.0763    1.0000 </r>
       <r>    3.0835    1.0000 </r>
       <r>    3.2851    1.0000 </r>
       <r>    3.3245    1.0000 </r>
       <r>    3.3433    1.0000 </r>
       <r>    3.3506    1.0000 </r>
       <r>    3.3620    1.0000 </r>
       <r>    3.3908    1.0000 </r>
       <r>    3.6187    1.0000 </r>
       <r>    3.6263    1.0000 </r>
       <r>    3.6570    1.0000 </r>
       <r>    3.6683    1.0000 </r>
       <r>    3.6750    1.0000 </r>
       <r>    3.6819    1.0000 </r>
       <r>    3.6912    1.0000 </r>
       <r>    3.7028    1.0000 </r>
       <r>    3.7207    1.0000 </r>
       <r>    3.7460    1.0000 </r>
       <r>    3.7612    1.0000 </r>
       <r>    3.7832    1.0000 </r>
       <r>    4.5577    1.0000 </r>
       <r>    4.6198    1.0000 </r>
       <r>    4.6360    1.0000 </r>
       <r>    4.6477    1.0000 </r>
       <r>    4.6894    1.0000 </r>
       <r>    4.7233    1.0000 </r>
       <r>    4.8206    1.0000 </r>
       <r>    4.8236    1.0000 </r>
       <r>    4.8366    1.0000 </r>
       <r>    4.8500    1.0000 </r>
       <r>    4.8618    1.0000 </r>
       <r>    4.8692    1.0000 </r>
       <r>    5.9839    1.0000 </r>
       <r>    6.0155    1.0000 </r>
       <r>    6.0217    1.0000 </r>
       <r>    6.0286    1.0000 </r>
       <r>    6.0530    1.0000 </r>
       <r>    6.0568    1.0000 </r>
       <r>    6.0848    1.0000 </r>
       <r>    6.0911    1.0000 </r>
       <r>    6.1130    1.0000 </r>
       <r>    6.1257    1.0000 </r>
       <r>    6.1317    1.0000 </r>
       <r>    6.1689    1.0000 </r>
       <r>    6.7184    1.0000 </r>
       <r>    6.7440    1.0000 </r>
       <r>    6.7671    1.0000 </r>
       <r>    6.7812    1.0000 </r>
       <r>    6.7902    1.0000 </r>
       <r>    6.8103    1.0000 </r>
       <r>    6.8355    1.0000 </r>
       <r>    6.8433    1.0000 </r>
       <r>    6.8499    1.0000 </r>
       <r>    6.8668    1.0000 </r>
       <r>    6.8930    1.0000 </r>
       <r>    6.8960    1.0000 </r>
       <r>    6.9322    1.0000 </r>
       <r>    6.9578    1.0000 </r>
       <r>    6.9605    1.0000 </r>
       <r>    6.9675    1.0000 </r>
       <r>    6.9913    1.0000 </r>
       <r>    6.9989    1.0000 </r>
       <r>    7.0244    1.0000 </r>
       <r>    7.0434    1.0000 </r>
       <r>    7.9945    0.9902 </r>
       <r>    8.0128    0.9630 </r>
       <r>    8.0649    0.8406 </r>
       <r>    9.3309   -0.0000 </r>
       <r>    9.3613   -0.0000 </r>
       <r>    9.3899   -0.0000 </r>
       <r>   11.9712   -0.0000 </r>
       <r>   11.9839   -0.0000 </r>
       <r>   11.9999   -0.0000 </r>
       <r>   12.0163   -0.0000 </r>
       <r>   12.0413   -0.0000 </r>
       <r>   12.0753   -0.0000 </r>
       <r>   12.2530   -0.0000 </r>
       <r>   12.2790   -0.0000 </r>
       <r>   12.3004   -0.0000 </r>
       <r>   13.0576   -0.0000 </r>
       <r>   13.1305   -0.0000 </r>
       <r>   13.1493   -0.0000 </r>
       <r>   13.1662   -0.0000 </r>
       <r>   13.1907   -0.0000 </r>
       <r>   13.2130   -0.0000 </r>
       <r>   13.3168   -0.0000 </r>
       <r>   13.3228   -0.0000 </r>
       <r>   13.3281   -0.0000 </r>
       <r>   13.3508   -0.0000 </r>
       <r>   13.4133   -0.0000 </r>
       <r>   13.4319   -0.0000 </r>
       <r>   13.4482   -0.0000 </r>
       <r>   13.4630   -0.0000 </r>
       <r>   13.4752   -0.0000 </r>
       <r>   13.5005   -0.0000 </r>
       <r>   13.5084   -0.0000 </r>
       <r>   13.5269   -0.0000 </r>
       <r>   13.5478   -0.0000 </r>
       <r>   13.5622   -0.0000 </r>
       <r>   13.5751   -0.0000 </r>
       <r>   13.6048   -0.0000 </r>
       <r>   14.1017    0.0000 </r>
       <r>   14.1990    0.0000 </r>
       <r>   14.2498    0.0000 </r>
       <r>   14.2556    0.0000 </r>
       <r>   14.3157    0.0000 </r>
       <r>   14.3691    0.0000 </r>
      </set>
      <set comment="kpoint 2">
       <r>   -7.1582    1.0000 </r>
       <r>   -6.6253    1.0000 </r>
       <r>   -5.6227    1.0000 </r>
       <r>   -5.6142    1.0000 </r>
       <r>   -5.5842    1.0000 </r>
       <r>   -5.5556    1.0000 </r>
       <r>   -5.1312    1.0000 </r>
       <r>   -5.1152    1.0000 </r>
       <r>   -5.0941    1.0000 </r>
       <r>   -5.0677    1.0000 </r>
       <r>   -4.5934    1.0000 </r>
       <r>   -4.2665    1.0000 </r>
       <r>   -4.2440    1.0000 </r>
       <r>   -4.2065    1.0000 </r>
       <r>   -4.1948    1.0000 </r>
       <r>   -4.0003    1.0000 </r>
       <r>   -3.9749    1.0000 </r>
       <r>   -3.9509    1.0000 </r>
       <r>   -3.9353    1.0000 </r>
       <r>   -3.4224    1.0000 </r>
       <r>   -3.4066    1.0000 </r>
       <r>   -3.3908    1.0000 </r>
       <r>   -3.3551    1.0000 </r>
       <r>   -3.2219    1.0000 </r>
       <r>   -2.5544    1.0000 </r>
       <r>   -2.5240    1.0000 </r>
       <r>   -2.5113    1.0000 </r>
       <r>   -2.4815    1.0000 </r>
       <r>   -2.3007    1.0000 </r>
       <r>   -2.2950    1.0000 </r>
       <r>   -2.1865    1.0000 </r>
       <r>   -2.1831    1.0000 </r>
       <r>   -0.0630    1.0000 </r>
       <r>   -0.0356    1.0000 </r>
       <r>   -0.0141    1.0000 </r>
       <r>    0.0108    1.0000 </r>
       <r>    0.3743    1.0000 </r>
       <r>    0.3824    1.0000 </r>
       <r>    0.7065    1.0000 </r>
       <r>    0.7347    1.0000 </r>
       <r>    1.0116    1.0000 </r>
       <r>    1.0237    1.0000 </r>
       <r>    1.0436    1.0000 </r>
       <r>    1.0680    1.0000 </r>
       <r>    1.0915    1.0000 </r>
       <r>    1.1091    1.0000 </r>
       <r>    1.1397    1.0000 </r>
       <r>    1.1476    1.0000 </r>
       <r>    1.2393    1.0000 </r>
       <r>    1.3792    1.0000 </r>
       <r>    1.3996    1.0000 </r>
       <r>    1.4319    1.0000 </r>
       <r>    1.4524    1.0000 </r>
       <r>    2.6840    1.0000 </r>
       <r>    2.6948    1.0000 </r>
       <r>    2.7131    1.0000 </r>
       <r>    2.7206    1.0000 </r>
       <r>    2.9183    1.0000 </r>
       <r>    2.9486    1.0000 </r>
       <r>    2.9611    1.0000 </r>
       <r>    2.9713    1.0000 </r>
       <r>    2.9927    1.0000 </r>
       <r>    3.0096    1.0000 </r>
       <r>    3.0233    1.0000 </r>
       <r>    3.0386    1.0000 </r>
       <r>    3.0585    1.0000 </r>
       <r>    3.5196    1.0000 </r>
       <r>    3.5271    1.0000 </r>
       <r>    3.6487    1.0000 </r>
       <r>    3.6572    1.0000 </r>
       <r>    3.9932    1.0000 </r>
       <r>    4.0159    1.0000 </r>
       <r>    4.0412    1.0000 </r>
       <r>    4.0661    1.0000 </r>
       <r>    4.3383    1.0000 </r>
       <r>    4.3555    1.0000 </r>
       <r>    4.3773    1.0000 </r>
       <r>    4.4028    1.0000 </r>
       <r>    4.4164    1.0000 </r>
       <r>    4.4319    1.0000 </r>
       <r>    4.4549    1.0000 </r>
       <r>    4.4771    1.0000 </r>
       <r>    4.6211    1.0000 </r>
       <r>    4.6320    1.0000 </r>
       <r>    4.6575    1.0000 </r>
       <r>    4.6929    1.0000 </r>
       <r>    4.7922    1.0000 </r>
       <r>    4.8129    1.0000 </r>
       <r>    4.8380    1.0000 </r>
       <r>    4.8676    1.0000 </r>
       <r>    4.9772    1.0000 </r>
       <r>    4.9921    1.0000 </r>
       <r>    5.4002    1.0000 </r>
       <r>    5.4109    1.0000 </r>
       <r>    5.5795    1.0000 </r>
       <r>    5.5898    1.0000 </r>
       <r>    5.6190    1.0000 </r>
       <r>    5.6483    1.0000 </r>
       <r>    5.8625    1.0000 </r>
       <r>    5.8827    1.0000 </r>
       <r>    5.9063    1.0000 </r>
       <r>    5.9297    1.0000 </r>
       <r>    6.1985    1.0000 </r>
       <r>    6.2365    1.0000 </r>
       <r>    6.2734    1.0000 </r>
       <r>    6.2829    1.0000 </r>
       <r>    6.3217    1.0000 </r>
       <r>    6.4375    1.0000 </r>
       <r>    6.4746    1.0000 </r>
       <r>    6.4937    1.0000 </r>
       <r>    6.5311    1.0000 </r>
       <r>    6.7801    1.0000 </r>
       <r>    6.8071    1.0000 </r>
       <r>    6.8312    1.0000 </r>
       <r>    6.8517    1.0000 </r>
       <r>    6.8703    1.0000 </r>
       <r>    6.8893    1.0000 </r>
       <r>    6.8974    1.0000 </r>
       <r>    6.9116    1.0000 </r>
       <r>    6.9313    1.0000 </r>
       <r>    6.9445    1.0000 </r>
       <r>    6.9643    1.0000 </r>
       <r>    6.9771    1.0000 </r>
       <r>    6.9997    1.0000 </r>
       <r>    7.0334    1.0000 </r>
       <r>    7.4705    1.0000 </r>
       <r>    7.6730    1.0017 </r>
       <r>    7.7015    1.0031 </r>
       <r>    9.6797   -0.0000 </r>
       <r>   10.2018   -0.0000 </r>
       <r>   10.2050   -0.0000 </r>
       <r>   10.6237   -0.0000 </r>
       <r>   11.9609   -0.0000 </r>
       <r>   11.9690   -0.0000 </r>
       <r>   12.4811   -0.0000 </r>
       <r>   12.6141   -0.0000 </r>
       <r>   12.6515   -0.0000 </r>
       <r>   12.6667   -0.0000 </r>
       <r>   12.6743   -0.0000 </r>
       <r>   12.9203   -0.0000 </r>
       <r>   12.9573   -0.0000 </r>
       <r>   12.9827   -0.0000 </r>
       <r>   12.9930   -0.0000 </r>
       <r>   13.0452   -0.0000 </r>
       <r>   13.0581   -0.0000 </r>
       <r>   13.0784   -0.0000 </r>
       <r>   13.0968   -0.0000 </r>
       <r>   13.1073   -0.0000 </r>
       <r>   13.1418   -0.0000 </r>
       <r>   13.1892   -0.0000 </r>
       <r>   13.5023   -0.0000 </r>
       <r>   13.6081   -0.0000 </r>
       <r>   13.6190    0.0000 </r>
       <r>   13.6481    0.0000 </r>
       <r>   13.6561    0.0000 </r>
       <r>   13.6814    0.0000 </r>
       <r>   13.6907    0.0000 </r>
       <r>   13.7020    0.0000 </r>
       <r>   13.7214    0.0000 </r>
       <r>   13.9312    0.0000 </r>
       <r>   13.9726    0.0000 </r>
       <r>   13.9895    0.0000 </r>
       <r>   14.0042    0.0000 </r>
       <r>   14.4735    0.0000 </r>
       <r>   14.7931    0.0000 </r>
       <r>   14.8326    0.0000 </r>
       <r>   14.8594    0.0000 </r>
       <r>   14.8947    0.0000 </r>
      </set>
      <set comment="kpoint 3">
       <r>   -7.1584    1.0000 </r>
       <r>   -6.6250    1.0000 </r>
       <r>   -5.6249    1.0000 </r>
       <r>   -5.6094    1.0000 </r>
       <r>   -5.5801    1.0000 </r>
       <r>   -5.5646    1.0000 </r>
       <r>   -5.1382    1.0000 </r>
       <r>   -5.1065    1.0000 </r>
       <r>   -5.0889    1.0000 </r>
       <r>   -5.0679    1.0000 </r>
       <r>   -4.5933    1.0000 </r>
       <r>   -4.2770    1.0000 </r>
       <r>   -4.2426    1.0000 </r>
       <r>   -4.2147    1.0000 </r>
       <r>   -4.1962    1.0000 </r>
       <r>   -3.9904    1.0000 </r>
       <r>   -3.9635    1.0000 </r>
       <r>   -3.9555    1.0000 </r>
       <r>   -3.9383    1.0000 </r>
       <r>   -3.4175    1.0000 </r>
       <r>   -3.4112    1.0000 </r>
       <r>   -3.3855    1.0000 </r>
       <r>   -3.3615    1.0000 </r>
       <r>   -3.2228    1.0000 </r>
       <r>   -2.5427    1.0000 </r>
       <r>   -2.5304    1.0000 </r>
       <r>   -2.5081    1.0000 </r>
       <r>   -2.4782    1.0000 </r>
       <r>   -2.3138    1.0000 </r>
       <r>   -2.3000    1.0000 </r>
       <r>   -2.1909    1.0000 </r>
       <r>   -2.1691    1.0000 </r>
       <r>   -0.0627    1.0000 </r>
       <r>   -0.0338    1.0000 </r>
       <r>   -0.0179    1.0000 </r>
       <r>    0.0111    1.0000 </r>
       <r>    0.3690    1.0000 </r>
       <r>    0.3843    1.0000 </r>
       <r>    0.7192    1.0000 </r>
       <r>    0.7250    1.0000 </r>
       <r>    0.9994    1.0000 </r>
       <r>    1.0290    1.0000 </r>
       <r>    1.0450    1.0000 </r>
       <r>    1.0738    1.0000 </r>
       <r>    1.0983    1.0000 </r>
       <r>    1.1172    1.0000 </r>
       <r>    1.1253    1.0000 </r>
       <r>    1.1422    1.0000 </r>
       <r>    1.2482    1.0000 </r>
       <r>    1.3784    1.0000 </r>
       <r>    1.4099    1.0000 </r>
       <r>    1.4296    1.0000 </r>
       <r>    1.4452    1.0000 </r>
       <r>    2.6822    1.0000 </r>
       <r>    2.6977    1.0000 </r>
       <r>    2.7008    1.0000 </r>
       <r>    2.7176    1.0000 </r>
       <r>    2.9141    1.0000 </r>
       <r>    2.9390    1.0000 </r>
       <r>    2.9622    1.0000 </r>
       <r>    2.9777    1.0000 </r>
       <r>    2.9948    1.0000 </r>
       <r>    2.9998    1.0000 </r>
       <r>    3.0342    1.0000 </r>
       <r>    3.0463    1.0000 </r>
       <r>    3.0634    1.0000 </r>
       <r>    3.5199    1.0000 </r>
       <r>    3.5290    1.0000 </r>
       <r>    3.6425    1.0000 </r>
       <r>    3.6488    1.0000 </r>
       <r>    3.9833    1.0000 </r>
       <r>    4.0287    1.0000 </r>
       <r>    4.0355    1.0000 </r>
       <r>    4.0747    1.0000 </r>
       <r>    4.3471    1.0000 </r>
       <r>    4.3579    1.0000 </r>
       <r>    4.3809    1.0000 </r>
       <r>    4.3895    1.0000 </r>
       <r>    4.4235    1.0000 </r>
       <r>    4.4386    1.0000 </r>
       <r>    4.4493    1.0000 </r>
       <r>    4.4759    1.0000 </r>
       <r>    4.6198    1.0000 </r>
       <r>    4.6479    1.0000 </r>
       <r>    4.6597    1.0000 </r>
       <r>    4.6891    1.0000 </r>
       <r>    4.7794    1.0000 </r>
       <r>    4.8142    1.0000 </r>
       <r>    4.8335    1.0000 </r>
       <r>    4.8666    1.0000 </r>
       <r>    4.9752    1.0000 </r>
       <r>    4.9945    1.0000 </r>
       <r>    5.4007    1.0000 </r>
       <r>    5.4108    1.0000 </r>
       <r>    5.5853    1.0000 </r>
       <r>    5.6014    1.0000 </r>
       <r>    5.6252    1.0000 </r>
       <r>    5.6359    1.0000 </r>
       <r>    5.8584    1.0000 </r>
       <r>    5.8887    1.0000 </r>
       <r>    5.9130    1.0000 </r>
       <r>    5.9277    1.0000 </r>
       <r>    6.1853    1.0000 </r>
       <r>    6.2361    1.0000 </r>
       <r>    6.2666    1.0000 </r>
       <r>    6.2931    1.0000 </r>
       <r>    6.3272    1.0000 </r>
       <r>    6.4414    1.0000 </r>
       <r>    6.4811    1.0000 </r>
       <r>    6.5014    1.0000 </r>
       <r>    6.5327    1.0000 </r>
       <r>    6.7727    1.0000 </r>
       <r>    6.7898    1.0000 </r>
       <r>    6.8102    1.0000 </r>
       <r>    6.8441    1.0000 </r>
       <r>    6.8526    1.0000 </r>
       <r>    6.8825    1.0000 </r>
       <r>    6.9053    1.0000 </r>
       <r>    6.9119    1.0000 </r>
       <r>    6.9380    1.0000 </r>
       <r>    6.9522    1.0000 </r>
       <r>    6.9634    1.0000 </r>
       <r>    6.9822    1.0000 </r>
       <r>    7.0173    1.0000 </r>
       <r>    7.0284    1.0000 </r>
       <r>    7.4736    1.0000 </r>
       <r>    7.6689    1.0016 </r>
       <r>    7.7079    1.0035 </r>
       <r>    9.6813   -0.0000 </r>
       <r>   10.1981   -0.0000 </r>
       <r>   10.2017   -0.0000 </r>
       <r>   10.6344   -0.0000 </r>
       <r>   11.9626   -0.0000 </r>
       <r>   11.9757   -0.0000 </r>
       <r>   12.4830   -0.0000 </r>
       <r>   12.6196   -0.0000 </r>
       <r>   12.6378   -0.0000 </r>
       <r>   12.6504   -0.0000 </r>
       <r>   12.6950   -0.0000 </r>
       <r>   12.9033   -0.0000 </r>
       <r>   12.9244   -0.0000 </r>
       <r>   12.9839   -0.0000 </r>
       <r>   13.0025   -0.0000 </r>
       <r>   13.0256   -0.0000 </r>
       <r>   13.0549   -0.0000 </r>
       <r>   13.0758   -0.0000 </r>
       <r>   13.0942   -0.0000 </r>
       <r>   13.1447   -0.0000 </r>
       <r>   13.1682   -0.0000 </r>
       <r>   13.1934   -0.0000 </r>
       <r>   13.4884   -0.0000 </r>
       <r>   13.5977   -0.0000 </r>
       <r>   13.6194    0.0000 </r>
       <r>   13.6490    0.0000 </r>
       <r>   13.6567    0.0000 </r>
       <r>   13.6834    0.0000 </r>
       <r>   13.6945    0.0000 </r>
       <r>   13.7081    0.0000 </r>
       <r>   13.7269    0.0000 </r>
       <r>   13.9346    0.0000 </r>
       <r>   13.9580    0.0000 </r>
       <r>   14.0011    0.0000 </r>
       <r>   14.0121    0.0000 </r>
       <r>   14.4729    0.0000 </r>
       <r>   14.8092    0.0000 </r>
       <r>   14.8196    0.0000 </r>
       <r>   14.8443    0.0000 </r>
       <r>   14.8989    0.0000 </r>
      </set>
      <set comment="kpoint 4">
       <r>   -7.1583    1.0000 </r>
       <r>   -6.6251    1.0000 </r>
       <r>   -5.6447    1.0000 </r>
       <r>   -5.5991    1.0000 </r>
       <r>   -5.5704    1.0000 </r>
       <r>   -5.5627    1.0000 </r>
       <r>   -5.1501    1.0000 </r>
       <r>   -5.1051    1.0000 </r>
       <r>   -5.0831    1.0000 </r>
       <r>   -5.0645    1.0000 </r>
       <r>   -4.5918    1.0000 </r>
       <r>   -4.2605    1.0000 </r>
       <r>   -4.2428    1.0000 </r>
       <r>   -4.2243    1.0000 </r>
       <r>   -4.2038    1.0000 </r>
       <r>   -3.9863    1.0000 </r>
       <r>   -3.9806    1.0000 </r>
       <r>   -3.9545    1.0000 </r>
       <r>   -3.9317    1.0000 </r>
       <r>   -3.4399    1.0000 </r>
       <r>   -3.4020    1.0000 </r>
       <r>   -3.3739    1.0000 </r>
       <r>   -3.3583    1.0000 </r>
       <r>   -3.2177    1.0000 </r>
       <r>   -2.5595    1.0000 </r>
       <r>   -2.5267    1.0000 </r>
       <r>   -2.4936    1.0000 </r>
       <r>   -2.4877    1.0000 </r>
       <r>   -2.3116    1.0000 </r>
       <r>   -2.2835    1.0000 </r>
       <r>   -2.2061    1.0000 </r>
       <r>   -2.1678    1.0000 </r>
       <r>   -0.0555    1.0000 </r>
       <r>   -0.0334    1.0000 </r>
       <r>   -0.0210    1.0000 </r>
       <r>    0.0108    1.0000 </r>
       <r>    0.3689    1.0000 </r>
       <r>    0.3787    1.0000 </r>
       <r>    0.7190    1.0000 </r>
       <r>    0.7326    1.0000 </r>
       <r>    0.9921    1.0000 </r>
       <r>    1.0274    1.0000 </r>
       <r>    1.0445    1.0000 </r>
       <r>    1.0742    1.0000 </r>
       <r>    1.1002    1.0000 </r>
       <r>    1.1141    1.0000 </r>
       <r>    1.1308    1.0000 </r>
       <r>    1.1462    1.0000 </r>
       <r>    1.2464    1.0000 </r>
       <r>    1.3659    1.0000 </r>
       <r>    1.3999    1.0000 </r>
       <r>    1.4409    1.0000 </r>
       <r>    1.4494    1.0000 </r>
       <r>    2.6758    1.0000 </r>
       <r>    2.6930    1.0000 </r>
       <r>    2.7078    1.0000 </r>
       <r>    2.7356    1.0000 </r>
       <r>    2.9097    1.0000 </r>
       <r>    2.9306    1.0000 </r>
       <r>    2.9552    1.0000 </r>
       <r>    2.9796    1.0000 </r>
       <r>    2.9952    1.0000 </r>
       <r>    3.0101    1.0000 </r>
       <r>    3.0227    1.0000 </r>
       <r>    3.0467    1.0000 </r>
       <r>    3.0716    1.0000 </r>
       <r>    3.5224    1.0000 </r>
       <r>    3.5309    1.0000 </r>
       <r>    3.6447    1.0000 </r>
       <r>    3.6519    1.0000 </r>
       <r>    3.9835    1.0000 </r>
       <r>    4.0051    1.0000 </r>
       <r>    4.0453    1.0000 </r>
       <r>    4.0832    1.0000 </r>
       <r>    4.3482    1.0000 </r>
       <r>    4.3612    1.0000 </r>
       <r>    4.3726    1.0000 </r>
       <r>    4.3877    1.0000 </r>
       <r>    4.4066    1.0000 </r>
       <r>    4.4360    1.0000 </r>
       <r>    4.4618    1.0000 </r>
       <r>    4.4892    1.0000 </r>
       <r>    4.6151    1.0000 </r>
       <r>    4.6353    1.0000 </r>
       <r>    4.6602    1.0000 </r>
       <r>    4.6987    1.0000 </r>
       <r>    4.8056    1.0000 </r>
       <r>    4.8152    1.0000 </r>
       <r>    4.8334    1.0000 </r>
       <r>    4.8425    1.0000 </r>
       <r>    4.9666    1.0000 </r>
       <r>    5.0010    1.0000 </r>
       <r>    5.3862    1.0000 </r>
       <r>    5.4220    1.0000 </r>
       <r>    5.5739    1.0000 </r>
       <r>    5.6048    1.0000 </r>
       <r>    5.6168    1.0000 </r>
       <r>    5.6583    1.0000 </r>
       <r>    5.8455    1.0000 </r>
       <r>    5.8897    1.0000 </r>
       <r>    5.9098    1.0000 </r>
       <r>    5.9416    1.0000 </r>
       <r>    6.1968    1.0000 </r>
       <r>    6.2576    1.0000 </r>
       <r>    6.2713    1.0000 </r>
       <r>    6.2913    1.0000 </r>
       <r>    6.3068    1.0000 </r>
       <r>    6.4491    1.0000 </r>
       <r>    6.4598    1.0000 </r>
       <r>    6.4976    1.0000 </r>
       <r>    6.5103    1.0000 </r>
       <r>    6.7708    1.0000 </r>
       <r>    6.7898    1.0000 </r>
       <r>    6.8201    1.0000 </r>
       <r>    6.8526    1.0000 </r>
       <r>    6.8638    1.0000 </r>
       <r>    6.8748    1.0000 </r>
       <r>    6.8982    1.0000 </r>
       <r>    6.9174    1.0000 </r>
       <r>    6.9413    1.0000 </r>
       <r>    6.9534    1.0000 </r>
       <r>    6.9649    1.0000 </r>
       <r>    6.9852    1.0000 </r>
       <r>    7.0114    1.0000 </r>
       <r>    7.0363    1.0000 </r>
       <r>    7.4736    1.0000 </r>
       <r>    7.6598    1.0013 </r>
       <r>    7.7120    1.0038 </r>
       <r>    9.6822   -0.0000 </r>
       <r>   10.1733   -0.0000 </r>
       <r>   10.2289   -0.0000 </r>
       <r>   10.6308   -0.0000 </r>
       <r>   11.9429   -0.0000 </r>
       <r>   11.9899   -0.0000 </r>
       <r>   12.4851   -0.0000 </r>
       <r>   12.6089   -0.0000 </r>
       <r>   12.6439   -0.0000 </r>
       <r>   12.6516   -0.0000 </r>
       <r>   12.6931   -0.0000 </r>
       <r>   12.9406   -0.0000 </r>
       <r>   12.9520   -0.0000 </r>
       <r>   12.9728   -0.0000 </r>
       <r>   12.9943   -0.0000 </r>
       <r>   13.0264   -0.0000 </r>
       <r>   13.0531   -0.0000 </r>
       <r>   13.0665   -0.0000 </r>
       <r>   13.0963   -0.0000 </r>
       <r>   13.1284   -0.0000 </r>
       <r>   13.1558   -0.0000 </r>
       <r>   13.1964   -0.0000 </r>
       <r>   13.4887   -0.0000 </r>
       <r>   13.6060   -0.0000 </r>
       <r>   13.6349    0.0000 </r>
       <r>   13.6393    0.0000 </r>
       <r>   13.6579    0.0000 </r>
       <r>   13.6763    0.0000 </r>
       <r>   13.6937    0.0000 </r>
       <r>   13.7117    0.0000 </r>
       <r>   13.7173    0.0000 </r>
       <r>   13.9257    0.0000 </r>
       <r>   13.9672    0.0000 </r>
       <r>   13.9760    0.0000 </r>
       <r>   14.0290    0.0000 </r>
       <r>   14.4717    0.0000 </r>
       <r>   14.7877    0.0000 </r>
       <r>   14.8154    0.0000 </r>
       <r>   14.8540    0.0000 </r>
       <r>   14.9075    0.0000 </r>
      </set>
      <set comment="kpoint 5">
       <r>   -6.9801    1.0000 </r>
       <r>   -6.4784    1.0000 </r>
       <r>   -6.4244    1.0000 </r>
       <r>   -5.9376    1.0000 </r>
       <r>   -5.4505    1.0000 </r>
       <r>   -5.4108    1.0000 </r>
       <r>   -5.0273    1.0000 </r>
       <r>   -4.9716    1.0000 </r>
       <r>   -4.9336    1.0000 </r>
       <r>   -4.9063    1.0000 </r>
       <r>   -4.5646    1.0000 </r>
       <r>   -4.5307    1.0000 </r>
       <r>   -4.4510    1.0000 </r>
       <r>   -4.3970    1.0000 </r>
       <r>   -4.0332    1.0000 </r>
       <r>   -3.9993    1.0000 </r>
       <r>   -3.5503    1.0000 </r>
       <r>   -3.5023    1.0000 </r>
       <r>   -3.4462    1.0000 </r>
       <r>   -3.3997    1.0000 </r>
       <r>   -3.3510    1.0000 </r>
       <r>   -3.3316    1.0000 </r>
       <r>   -3.1393    1.0000 </r>
       <r>   -3.1050    1.0000 </r>
       <r>   -2.8703    1.0000 </r>
       <r>   -2.8198    1.0000 </r>
       <r>   -2.7699    1.0000 </r>
       <r>   -2.7380    1.0000 </r>
       <r>   -2.6616    1.0000 </r>
       <r>   -2.3534    1.0000 </r>
       <r>   -2.3035    1.0000 </r>
       <r>   -2.2610    1.0000 </r>
       <r>   -0.1769    1.0000 </r>
       <r>   -0.1334    1.0000 </r>
       <r>    0.4744    1.0000 </r>
       <r>    0.4861    1.0000 </r>
       <r>    0.5340    1.0000 </r>
       <r>    0.5663    1.0000 </r>
       <r>    0.5904    1.0000 </r>
       <r>    0.6522    1.0000 </r>
       <r>    0.6928    1.0000 </r>
       <r>    0.7834    1.0000 </r>
       <r>    0.8002    1.0000 </r>
       <r>    0.8371    1.0000 </r>
       <r>    0.8621    1.0000 </r>
       <r>    0.9663    1.0000 </r>
       <r>    1.1833    1.0000 </r>
       <r>    1.2294    1.0000 </r>
       <r>    1.2640    1.0000 </r>
       <r>    1.2750    1.0000 </r>
       <r>    2.0245    1.0000 </r>
       <r>    2.0339    1.0000 </r>
       <r>    2.0547    1.0000 </r>
       <r>    2.0861    1.0000 </r>
       <r>    2.1014    1.0000 </r>
       <r>    2.1412    1.0000 </r>
       <r>    2.4033    1.0000 </r>
       <r>    2.5719    1.0000 </r>
       <r>    2.6111    1.0000 </r>
       <r>    2.6457    1.0000 </r>
       <r>    2.7224    1.0000 </r>
       <r>    3.2129    1.0000 </r>
       <r>    3.2404    1.0000 </r>
       <r>    3.2630    1.0000 </r>
       <r>    3.2926    1.0000 </r>
       <r>    3.3096    1.0000 </r>
       <r>    3.4932    1.0000 </r>
       <r>    3.5454    1.0000 </r>
       <r>    3.9156    1.0000 </r>
       <r>    3.9265    1.0000 </r>
       <r>    4.0335    1.0000 </r>
       <r>    4.0486    1.0000 </r>
       <r>    4.0750    1.0000 </r>
       <r>    4.0935    1.0000 </r>
       <r>    4.1203    1.0000 </r>
       <r>    4.3016    1.0000 </r>
       <r>    4.3400    1.0000 </r>
       <r>    4.4810    1.0000 </r>
       <r>    4.4896    1.0000 </r>
       <r>    4.6583    1.0000 </r>
       <r>    4.6708    1.0000 </r>
       <r>    4.8562    1.0000 </r>
       <r>    4.8860    1.0000 </r>
       <r>    4.8983    1.0000 </r>
       <r>    4.9211    1.0000 </r>
       <r>    4.9408    1.0000 </r>
       <r>    4.9578    1.0000 </r>
       <r>    5.1008    1.0000 </r>
       <r>    5.3027    1.0000 </r>
       <r>    5.3200    1.0000 </r>
       <r>    5.3927    1.0000 </r>
       <r>    5.4156    1.0000 </r>
       <r>    5.4530    1.0000 </r>
       <r>    5.4609    1.0000 </r>
       <r>    5.5190    1.0000 </r>
       <r>    5.5485    1.0000 </r>
       <r>    5.5793    1.0000 </r>
       <r>    5.5891    1.0000 </r>
       <r>    5.6100    1.0000 </r>
       <r>    5.6577    1.0000 </r>
       <r>    5.6767    1.0000 </r>
       <r>    5.8608    1.0000 </r>
       <r>    5.9788    1.0000 </r>
       <r>    5.9912    1.0000 </r>
       <r>    6.0212    1.0000 </r>
       <r>    6.0620    1.0000 </r>
       <r>    6.1934    1.0000 </r>
       <r>    6.2083    1.0000 </r>
       <r>    6.2691    1.0000 </r>
       <r>    6.3127    1.0000 </r>
       <r>    6.4168    1.0000 </r>
       <r>    6.4449    1.0000 </r>
       <r>    6.4813    1.0000 </r>
       <r>    6.5010    1.0000 </r>
       <r>    6.5284    1.0000 </r>
       <r>    6.6485    1.0000 </r>
       <r>    6.6658    1.0000 </r>
       <r>    6.7127    1.0000 </r>
       <r>    6.7706    1.0000 </r>
       <r>    6.8408    1.0000 </r>
       <r>    6.8601    1.0000 </r>
       <r>    6.9032    1.0000 </r>
       <r>    6.9236    1.0000 </r>
       <r>    7.3126    1.0000 </r>
       <r>    7.4134    1.0000 </r>
       <r>    7.5190    1.0000 </r>
       <r>    7.6620    1.0014 </r>
       <r>    8.0021    0.9799 </r>
       <r>   10.4371   -0.0000 </r>
       <r>   10.4590   -0.0000 </r>
       <r>   10.5183   -0.0000 </r>
       <r>   11.3218   -0.0000 </r>
       <r>   11.3522   -0.0000 </r>
       <r>   11.6126   -0.0000 </r>
       <r>   11.6748   -0.0000 </r>
       <r>   11.8196   -0.0000 </r>
       <r>   12.1750   -0.0000 </r>
       <r>   12.2037   -0.0000 </r>
       <r>   12.8029   -0.0000 </r>
       <r>   12.8628   -0.0000 </r>
       <r>   12.8802   -0.0000 </r>
       <r>   12.9127   -0.0000 </r>
       <r>   13.0162   -0.0000 </r>
       <r>   13.0927   -0.0000 </r>
       <r>   13.1348   -0.0000 </r>
       <r>   13.1623   -0.0000 </r>
       <r>   13.1935   -0.0000 </r>
       <r>   13.2096   -0.0000 </r>
       <r>   13.2834   -0.0000 </r>
       <r>   13.2911   -0.0000 </r>
       <r>   13.5369   -0.0000 </r>
       <r>   13.5622   -0.0000 </r>
       <r>   13.5867   -0.0000 </r>
       <r>   13.6216    0.0000 </r>
       <r>   13.6833    0.0000 </r>
       <r>   13.7487    0.0000 </r>
       <r>   13.7753    0.0000 </r>
       <r>   13.7802    0.0000 </r>
       <r>   13.8933    0.0000 </r>
       <r>   13.9097    0.0000 </r>
       <r>   13.9825    0.0000 </r>
       <r>   14.0578    0.0000 </r>
       <r>   14.1341    0.0000 </r>
       <r>   14.6528    0.0000 </r>
       <r>   14.7299    0.0000 </r>
       <r>   14.7455    0.0000 </r>
       <r>   14.9823    0.0000 </r>
       <r>   15.0141    0.0000 </r>
      </set>
      <set comment="kpoint 6">
       <r>   -6.9805    1.0000 </r>
       <r>   -6.4655    1.0000 </r>
       <r>   -6.4379    1.0000 </r>
       <r>   -5.9394    1.0000 </r>
       <r>   -5.4401    1.0000 </r>
       <r>   -5.4166    1.0000 </r>
       <r>   -5.0030    1.0000 </r>
       <r>   -4.9672    1.0000 </r>
       <r>   -4.9381    1.0000 </r>
       <r>   -4.9322    1.0000 </r>
       <r>   -4.5584    1.0000 </r>
       <r>   -4.5410    1.0000 </r>
       <r>   -4.4377    1.0000 </r>
       <r>   -4.4128    1.0000 </r>
       <r>   -4.0199    1.0000 </r>
       <r>   -4.0087    1.0000 </r>
       <r>   -3.5390    1.0000 </r>
       <r>   -3.5292    1.0000 </r>
       <r>   -3.4094    1.0000 </r>
       <r>   -3.3898    1.0000 </r>
       <r>   -3.3636    1.0000 </r>
       <r>   -3.3570    1.0000 </r>
       <r>   -3.1332    1.0000 </r>
       <r>   -3.1077    1.0000 </r>
       <r>   -2.8588    1.0000 </r>
       <r>   -2.8323    1.0000 </r>
       <r>   -2.7602    1.0000 </r>
       <r>   -2.7169    1.0000 </r>
       <r>   -2.6838    1.0000 </r>
       <r>   -2.3440    1.0000 </r>
       <r>   -2.3072    1.0000 </r>
       <r>   -2.2668    1.0000 </r>
       <r>   -0.1802    1.0000 </r>
       <r>   -0.1425    1.0000 </r>
       <r>    0.4617    1.0000 </r>
       <r>    0.5060    1.0000 </r>
       <r>    0.5481    1.0000 </r>
       <r>    0.5572    1.0000 </r>
       <r>    0.5933    1.0000 </r>
       <r>    0.6518    1.0000 </r>
       <r>    0.6854    1.0000 </r>
       <r>    0.7722    1.0000 </r>
       <r>    0.7996    1.0000 </r>
       <r>    0.8288    1.0000 </r>
       <r>    0.8766    1.0000 </r>
       <r>    0.9810    1.0000 </r>
       <r>    1.1888    1.0000 </r>
       <r>    1.2350    1.0000 </r>
       <r>    1.2670    1.0000 </r>
       <r>    1.2757    1.0000 </r>
       <r>    2.0103    1.0000 </r>
       <r>    2.0417    1.0000 </r>
       <r>    2.0549    1.0000 </r>
       <r>    2.0733    1.0000 </r>
       <r>    2.0937    1.0000 </r>
       <r>    2.1280    1.0000 </r>
       <r>    2.4091    1.0000 </r>
       <r>    2.5737    1.0000 </r>
       <r>    2.5994    1.0000 </r>
       <r>    2.6570    1.0000 </r>
       <r>    2.7151    1.0000 </r>
       <r>    3.2194    1.0000 </r>
[...]
      </set>
     </set>
    </set>
   </array>
  </eigenvalues>
  <separator name="orbital magnetization" >
   <v name="MAGDIPOLOUT">      0.00000000      0.00000000      0.00000000</v>
  </separator>
  <dos>
   <i name="efermi">      8.15462718 </i>
   <total>
    <array>
     <dimension dim="1">gridpoints</dimension>
     <dimension dim="2">spin</dimension>
     <field>energy</field>
     <field>total</field>
     <field>integrated</field>
     <set>
      <set comment="spin 1">
       <r>    -9.3375     0.0000     0.0000 </r>
       <r>    -9.2481     0.0000     0.0000 </r>
       <r>    -9.1587     0.0000     0.0000 </r>
       <r>    -9.0693     0.0000     0.0000 </r>
       <r>    -8.9798    -0.0000    -0.0000 </r>
       <r>    -8.8904    -0.0000    -0.0000 </r>
       <r>    -8.8010    -0.0000    -0.0000 </r>
       <r>    -8.7116    -0.0000    -0.0000 </r>
       <r>    -8.6222    -0.0000    -0.0000 </r>
       <r>    -8.5328    -0.0000    -0.0000 </r>
       <r>    -8.4433    -0.0000    -0.0000 </r>
       <r>    -8.3539    -0.0000    -0.0000 </r>
       <r>    -8.2645    -0.0000    -0.0000 </r>
       <r>    -8.1751    -0.0000    -0.0000 </r>
       <r>    -8.0857    -0.0000    -0.0000 </r>
       <r>    -7.9963    -0.0000    -0.0000 </r>
       <r>    -7.9068    -0.0002    -0.0000 </r>
       <r>    -7.8174    -0.0014    -0.0001 </r>
       <r>    -7.7280    -0.0072    -0.0008 </r>
       <r>    -7.6386    -0.0229    -0.0028 </r>
       <r>    -7.5492    -0.0414    -0.0065 </r>
       <r>    -7.4597    -0.0187    -0.0082 </r>
       <r>    -7.3703     0.1473     0.0050 </r>
       <r>    -7.2809     0.6306     0.0613 </r>
       <r>    -7.1915     1.5510     0.2000 </r>
       <r>    -7.1021     2.7999     0.4504 </r>
       <r>    -7.0127     4.0155     0.8095 </r>
       <r>    -6.9232     4.5564     1.2169 </r>
       <r>    -6.8338     4.0798     1.5817 </r>
       <r>    -6.7444     3.1181     1.8605 </r>
       <r>    -6.6550     2.7428     2.1057 </r>
       <r>    -6.5656     4.1188     2.4740 </r>
       <r>    -6.4762     7.2283     3.1204 </r>
       <r>    -6.3867    10.0495     4.0190 </r>
       <r>    -6.2973    10.3916     4.9482 </r>
       <r>    -6.2079     7.6795     5.6348 </r>
       <r>    -6.1185     3.6922     5.9650 </r>
       <r>    -6.0291     1.8358     6.1291 </r>
       <r>    -5.9397     3.5765     6.4489 </r>
       <r>    -5.8502     7.2956     7.1013 </r>
       <r>    -5.7608    10.5690     8.0463 </r>
       <r>    -5.6714    11.8504     9.1060 </r>
       <r>    -5.5820    11.5838    10.1418 </r>
       <r>    -5.4926    11.0676    11.1314 </r>
       <r>    -5.4031     9.9796    12.0237 </r>
       <r>    -5.3137     7.5654    12.7002 </r>
       <r>    -5.2243     5.8626    13.2244 </r>
       <r>    -5.1349     8.2485    13.9620 </r>
       <r>    -5.0455    14.0927    15.2221 </r>
       <r>    -4.9561    17.5163    16.7884 </r>
       <r>    -4.8666    13.6909    18.0126 </r>
       <r>    -4.7772     5.9360    18.5434 </r>
       <r>    -4.6878     2.4031    18.7583 </r>
       <r>    -4.5984     5.9948    19.2943 </r>
       <r>    -4.5090    12.5396    20.4156 </r>
       <r>    -4.4196    17.6805    21.9965 </r>
       <r>    -4.3301    19.8943    23.7754 </r>
       <r>    -4.2407    18.0603    25.3903 </r>
       <r>    -4.1513    14.2532    26.6648 </r>
       <r>    -4.0619    15.5986    28.0596 </r>
       <r>    -3.9725    22.7447    30.0934 </r>
       <r>    -3.8831    25.1798    32.3449 </r>
       <r>    -3.7936    18.3746    33.9879 </r>
       <r>    -3.7042    11.0615    34.9770 </r>
       <r>    -3.6148    10.4957    35.9155 </r>
       <r>    -3.5254    15.7432    37.3232 </r>
       <r>    -3.4360    22.3780    39.3242 </r>
       <r>    -3.3465    24.0167    41.4717 </r>
       <r>    -3.2571    18.7908    43.1519 </r>
       <r>    -3.1677    14.3676    44.4366 </r>
       <r>    -3.0783    16.0920    45.8755 </r>
       <r>    -2.9889    20.7811    47.7337 </r>
       <r>    -2.8995    25.9903    50.0577 </r>
       <r>    -2.8100    29.9071    52.7319 </r>
       <r>    -2.7206    27.4510    55.1865 </r>
       <r>    -2.6312    18.6575    56.8548 </r>
       <r>    -2.5418    11.0150    57.8397 </r>
       <r>    -2.4524     9.7058    58.7076 </r>
       <r>    -2.3630    13.6915    59.9319 </r>
       <r>    -2.2735    17.7076    61.5152 </r>
       <r>    -2.1841    16.1162    62.9563 </r>
       <r>    -2.0947     9.4193    63.7986 </r>
       <r>    -2.0053     3.0530    64.0715 </r>
       <r>    -1.9159     0.0494    64.0760 </r>
       <r>    -1.8265    -0.4859    64.0325 </r>
       <r>    -1.7370    -0.2661    64.0087 </r>
       <r>    -1.6476    -0.0799    64.0016 </r>
       <r>    -1.5582    -0.0155    64.0002 </r>
       <r>    -1.4688    -0.0020    64.0000 </r>
       <r>    -1.3794    -0.0002    64.0000 </r>
       <r>    -1.2899    -0.0000    64.0000 </r>
       <r>    -1.2005    -0.0000    64.0000 </r>
       <r>    -1.1111    -0.0002    64.0000 </r>
       <r>    -1.0217    -0.0018    63.9998 </r>
       <r>    -0.9323    -0.0112    63.9988 </r>
       <r>    -0.8429    -0.0395    63.9953 </r>
       <r>    -0.7534    -0.0586    63.9900 </r>
       <r>    -0.6640     0.0772    63.9969 </r>
       <r>    -0.5746     0.4616    64.0382 </r>
       <r>    -0.4852     0.7386    64.1043 </r>
       <r>    -0.3958     0.7191    64.1686 </r>
       <r>    -0.3064     1.7759    64.3274 </r>
       <r>    -0.2169     5.4248    64.8124 </r>
       <r>    -0.1275     9.8562    65.6937 </r>
       <r>    -0.0381    11.0990    66.6862 </r>
       <r>     0.0513     8.3313    67.4312 </r>
       <r>     0.1407     5.7196    67.9426 </r>
       <r>     0.2301     7.5894    68.6212 </r>
       <r>     0.3196    13.2355    69.8047 </r>
       <r>     0.4090    19.2161    71.5230 </r>
       <r>     0.4984    23.3454    73.6104 </r>
       <r>     0.5878    24.8271    75.8304 </r>
       <r>     0.6772    25.4889    78.1096 </r>
       <r>     0.7667    28.7000    80.6758 </r>
       <r>     0.8561    32.4152    83.5743 </r>
       <r>     0.9455    31.2760    86.3709 </r>
       <r>     1.0349    28.0587    88.8799 </r>
       <r>     1.1243    30.4194    91.5999 </r>
       <r>     1.2137    37.3382    94.9386 </r>
       <r>     1.3032    39.1083    98.4356 </r>
       <r>     1.3926    30.0584   101.1233 </r>
       <r>     1.4820    15.4903   102.5084 </r>
       <r>     1.5714     4.1632   102.8807 </r>
       <r>     1.6608    -0.7500   102.8136 </r>
       <r>     1.7502    -1.1372   102.7119 </r>
       <r>     1.8397     1.4301   102.8398 </r>
       <r>     1.9291     8.3729   103.5885 </r>
       <r>     2.0185    19.5060   105.3326 </r>
       <r>     2.1079    27.1442   107.7598 </r>
       <r>     2.1973    23.7954   109.8875 </r>
       <r>     2.2867    13.5985   111.1035 </r>
       <r>     2.3762     6.1530   111.6536 </r>
       <r>     2.4656     5.4743   112.1431 </r>
       <r>     2.5550    10.3449   113.0682 </r>
       <r>     2.6444    16.5003   114.5436 </r>
       <r>     2.7338    17.7202   116.1281 </r>
       <r>     2.8233    13.6494   117.3486 </r>
       <r>     2.9127    12.0981   118.4303 </r>
       <r>     3.0021    16.4448   119.9008 </r>
       <r>     3.0915    21.8115   121.8511 </r>
       <r>     3.1809    26.7740   124.2452 </r>
       <r>     3.2703    32.4291   127.1449 </r>
       <r>     3.3598    33.6895   130.1573 </r>
       <r>     3.4492    29.1358   132.7626 </r>
       <r>     3.5386    25.6650   135.0575 </r>
       <r>     3.6280    24.0181   137.2051 </r>
       <r>     3.7174    19.1343   138.9161 </r>
       <r>     3.8068    12.8521   140.0652 </r>
       <r>     3.8963    12.9377   141.2221 </r>
       <r>     3.9857    20.6193   143.0658 </r>
       <r>     4.0751    25.9581   145.3869 </r>
       <r>     4.1645    22.2197   147.3738 </r>
       <r>     4.2539    18.0951   148.9918 </r>
       <r>     4.3433    23.0284   151.0509 </r>
       <r>     4.4328    31.7203   153.8873 </r>
       <r>     4.5222    35.9291   157.0999 </r>
       <r>     4.6116    35.6650   160.2890 </r>
       <r>     4.7010    34.0171   163.3307 </r>
       <r>     4.7904    34.3214   166.3997 </r>
       <r>     4.8799    36.8273   169.6927 </r>
       <r>     4.9693    36.1243   172.9228 </r>
       <r>     5.0587    31.5411   175.7431 </r>
       <r>     5.1481    29.2868   178.3619 </r>
       <r>     5.2375    30.4424   181.0839 </r>
       <r>     5.3269    30.6853   183.8277 </r>
       <r>     5.4164    30.3195   186.5388 </r>
       <r>     5.5058    34.4852   189.6224 </r>
       <r>     5.5952    42.1173   193.3884 </r>
       <r>     5.6846    43.8182   197.3065 </r>
       <r>     5.7740    37.7655   200.6834 </r>
       <r>     5.8634    33.3132   203.6622 </r>
       <r>     5.9529    33.1735   206.6285 </r>
       <r>     6.0423    31.4099   209.4371 </r>
       <r>     6.1317    28.3758   211.9744 </r>
       <r>     6.2211    29.8099   214.6399 </r>
       <r>     6.3105    34.0679   217.6862 </r>
       <r>     6.3999    35.9796   220.9034 </r>
       <r>     6.4894    34.4761   223.9861 </r>
       <r>     6.5788    29.4378   226.6184 </r>
       <r>     6.6682    24.9577   228.8500 </r>
       <r>     6.7576    28.2925   231.3799 </r>
       <r>     6.8470    38.3536   234.8093 </r>
       <r>     6.9365    44.2686   238.7677 </r>
       <r>     7.0259    37.4188   242.1136 </r>
       <r>     7.1153    22.5529   244.1302 </r>
       <r>     7.2047    11.9981   245.2031 </r>
       <r>     7.2941    10.9223   246.1797 </r>
       <r>     7.3835    15.3691   247.5540 </r>
       <r>     7.4730    19.9629   249.3390 </r>
       <r>     7.5624    21.5371   251.2648 </r>
       <r>     7.6518    19.2073   252.9823 </r>
       <r>     7.7412    13.7855   254.2149 </r>
       <r>     7.8306     7.6980   254.9033 </r>
       <r>     7.9200     4.3344   255.2908 </r>
       <r>     8.0095     3.8207   255.6325 </r>
       <r>     8.0989     3.0842   255.9083 </r>
       <r>     8.1883     1.3151   256.0258 </r>
       <r>     8.2777     0.0566   256.0309 </r>
       <r>     8.3671    -0.2096   256.0122 </r>
       <r>     8.4565    -0.1054   256.0027 </r>
       <r>     8.5460    -0.0263   256.0004 </r>
       <r>     8.6354    -0.0040   256.0000 </r>
       <r>     8.7248    -0.0005   256.0000 </r>
       <r>     8.8142    -0.0010   255.9999 </r>
       <r>     8.9036    -0.0067   255.9993 </r>
       <r>     8.9931    -0.0256   255.9970 </r>
       <r>     9.0825    -0.0444   255.9930 </r>
       <r>     9.1719     0.0403   255.9966 </r>
       <r>     9.2613     0.3535   256.0283 </r>
       <r>     9.3507     0.7213   256.0928 </r>
       <r>     9.4401     0.7801   256.1625 </r>
       <r>     9.5296     0.7613   256.2306 </r>
       <r>     9.6190     1.2332   256.3409 </r>
       <r>     9.7084     1.7553   256.4978 </r>
       <r>     9.7978     1.3873   256.6219 </r>
       <r>     9.8872     0.3926   256.6570 </r>
       <r>     9.9766    -0.1250   256.6458 </r>
       <r>    10.0661     0.5291   256.6931 </r>
       <r>    10.1555     2.0750   256.8786 </r>
       <r>    10.2449     3.5186   257.1933 </r>
       <r>    10.3343     5.2082   257.6590 </r>
       <r>    10.4237     8.2896   258.4002 </r>
       <r>    10.5131    11.0956   259.3923 </r>
       <r>    10.6026    11.5871   260.4284 </r>
       <r>    10.6920    10.5251   261.3696 </r>
       <r>    10.7814     8.0456   262.0890 </r>
       <r>    10.8708     4.0078   262.4473 </r>
       <r>    10.9602     0.5648   262.4978 </r>
       <r>    11.0497    -0.7774   262.4283 </r>
       <r>    11.1391    -0.3081   262.4008 </r>
       <r>    11.2285     1.9991   262.5795 </r>
       <r>    11.3179     5.4255   263.0647 </r>
       <r>    11.4073     7.8170   263.7636 </r>
       <r>    11.4967     9.3104   264.5961 </r>
       <r>    11.5862    11.5468   265.6286 </r>
       <r>    11.6756    13.4573   266.8320 </r>
       <r>    11.7650    14.8527   268.1600 </r>
       <r>    11.8544    17.9391   269.7641 </r>
       <r>    11.9438    21.2423   271.6635 </r>
       <r>    12.0332    21.1880   273.5581 </r>
       <r>    12.1227    18.0545   275.1725 </r>
       <r>    12.2121    13.4081   276.3714 </r>
       <r>    12.3015     7.5197   277.0438 </r>
       <r>    12.3909     2.8742   277.3008 </r>
       <r>    12.4803     4.0011   277.6586 </r>
       <r>    12.5697    11.8130   278.7149 </r>
       <r>    12.6592    21.1364   280.6048 </r>
       <r>    12.7486    26.6757   282.9901 </r>
       <r>    12.8380    28.6659   285.5533 </r>
       <r>    12.9274    29.4281   288.1847 </r>
       <r>    13.0168    31.2278   290.9770 </r>
       <r>    13.1063    34.7698   294.0860 </r>
       <r>    13.1957    34.7042   297.1892 </r>
       <r>    13.2851    26.2345   299.5350 </r>
       <r>    13.3745    15.3471   300.9073 </r>
       <r>    13.4639    13.6693   302.1296 </r>
       <r>    13.5533    23.7209   304.2507 </r>
       <r>    13.6428    34.6662   307.3504 </r>
       <r>    13.7322    35.8436   310.5555 </r>
       <r>    13.8216    29.5475   313.1975 </r>
       <r>    13.9110    25.9763   315.5203 </r>
       <r>    14.0004    28.9398   318.1080 </r>
       <r>    14.0898    32.1620   320.9838 </r>
       <r>    14.1793    29.2466   323.5990 </r>
       <r>    14.2687    20.2541   325.4100 </r>
       <r>    14.3581     9.7180   326.2790 </r>
       <r>    14.4475     2.9737   326.5449 </r>
       <r>    14.5369     3.0574   326.8183 </r>
       <r>    14.6263     9.6453   327.6807 </r>
       <r>    14.7158    18.1046   329.2996 </r>
       <r>    14.8052    21.5889   331.2300 </r>
       <r>    14.8946    18.5164   332.8857 </r>
       <r>    14.9840    12.7599   334.0267 </r>
       <r>    15.0734     6.9568   334.6487 </r>
       <r>    15.1629     2.2360   334.8487 </r>
       <r>    15.2523     0.2931   334.8749 </r>
       <r>    15.3417     1.6073   335.0186 </r>
       <r>    15.4311     3.9967   335.3760 </r>
       <r>    15.5205     4.4132   335.7706 </r>
       <r>    15.6099     2.4873   335.9930 </r>
       <r>    15.6994     0.5060   336.0382 </r>
       <r>    15.7888    -0.2025   336.0201 </r>
       <r>    15.8782    -0.1651   336.0054 </r>
       <r>    15.9676    -0.0503   336.0009 </r>
       <r>    16.0570    -0.0087   336.0001 </r>
       <r>    16.1464    -0.0009   336.0000 </r>
       <r>    16.2359    -0.0001   336.0000 </r>
       <r>    16.3253    -0.0000   336.0000 </r>
       <r>    16.4147    -0.0000   336.0000 </r>
       <r>    16.5041    -0.0000   336.0000 </r>
       <r>    16.5935    -0.0000   336.0000 </r>
       <r>    16.6829    -0.0000   336.0000 </r>
       <r>    16.7724    -0.0000   336.0000 </r>
       <r>    16.8618     0.0000   336.0000 </r>
       <r>    16.9512     0.0000   336.0000 </r>
       <r>    17.0406     0.0000   336.0000 </r>
       <r>    17.1300     0.0000   336.0000 </r>
       <r>    17.2195     0.0000   336.0000 </r>
       <r>    17.3089     0.0000   336.0000 </r>
       <r>    17.3983     0.0000   336.0000 </r>
       <r>    17.4877     0.0000   336.0000 </r>
      </set>
     </set>
    </array>
   </total>
  </dos>
 </calculation>
 <structure name="finalpos" >
  <crystal>
   <varray name="basis" >
    <v>       8.74331558       0.00000000       0.00000000 </v>
    <v>       0.00000000       8.74331558       0.00000000 </v>
    <v>       0.00000000       0.00000000       8.74331558 </v>
   </varray>
   <i name="volume">    668.38771987 </i>
   <varray name="rec_basis" >
    <v>       0.11437309       0.00000000       0.00000000 </v>
    <v>       0.00000000       0.11437309       0.00000000 </v>
    <v>       0.00000000       0.00000000       0.11437309 </v>
   </varray>
  </crystal>
  <varray name="positions" >
   <v>       0.12622119       0.12260879       0.12780032 </v>
   <v>       0.12574054       0.37244283       0.37621400 </v>
   <v>       0.37298779       0.12375931       0.37293039 </v>
   <v>       0.37415919       0.37511448       0.12543004 </v>
   <v>       0.12666223       0.12557543       0.62274323 </v>
   <v>       0.12505331       0.37620970       0.87656537 </v>
   <v>       0.37409495       0.12275525       0.87804097 </v>
   <v>       0.37556078       0.37539179       0.62703830 </v>
   <v>       0.12680216       0.62571285       0.12710372 </v>
   <v>       0.12498588       0.87621125       0.37241207 </v>
   <v>       0.37550052       0.62824592       0.37160319 </v>
   <v>       0.37180742       0.87940365       0.12537148 </v>
   <v>       0.12255753       0.62586281       0.62715219 </v>
   <v>       0.12417480       0.87418369       0.87376204 </v>
   <v>       0.37173476       0.62636133       0.87180329 </v>
   <v>       0.37546870       0.87437829       0.62625680 </v>
   <v>       0.62094609       0.11932106       0.12060159 </v>
   <v>       0.62575746       0.37370829       0.37410114 </v>
   <v>       0.87296007       0.12812808       0.37560290 </v>
   <v>       0.87331130       0.37802479       0.12313536 </v>
   <v>       0.62813966       0.12678115       0.62803594 </v>
   <v>       0.62328974       0.37608932       0.86990885 </v>
   <v>       0.87589606       0.12399681       0.87450596 </v>
   <v>       0.87112608       0.37467100       0.62305893 </v>
   <v>       0.62397226       0.62661042       0.12486936 </v>
   <v>       0.62070013       0.87659072       0.37866256 </v>
   <v>       0.87749379       0.62411107       0.37490674 </v>
   <v>       0.87548958       0.87126173       0.12154665 </v>
   <v>       0.62782693       0.63011543       0.62276290 </v>
   <v>       0.62576996       0.87881419       0.87496555 </v>
   <v>       0.87460532       0.62693156       0.87420995 </v>
   <v>       0.87304193       0.87050595       0.62107462 </v>
   <v>       0.99798277       0.00008529       0.00102846 </v>
   <v>       0.00438980       0.25027342       0.25050048 </v>
   <v>       0.25151546       0.99997831       0.25203468 </v>
   <v>       0.24765888       0.24645813       0.00145810 </v>
   <v>       0.00043286       0.99959208       0.50045284 </v>
   <v>       0.99767342       0.25052117       0.74990906 </v>
   <v>       0.24875276       0.99975776       0.75373392 </v>
   <v>       0.25278702       0.24766679       0.50139677 </v>
   <v>       0.00129195       0.49657606       0.99861842 </v>
   <v>       0.00302692       0.74730211       0.24984120 </v>
   <v>       0.24957409       0.49959566       0.24439961 </v>
   <v>       0.24932890       0.74940931       0.99810825 </v>
   <v>       0.99860210       0.49927643       0.50049511 </v>
   <v>       0.99639786       0.74697003       0.74821020 </v>
   <v>       0.25038503       0.50307599       0.74771759 </v>
   <v>       0.24873959       0.75212583       0.50007651 </v>
   <v>       0.49815523       0.99885926       0.99877775 </v>
   <v>       0.49976102       0.25035745       0.24950024 </v>
   <v>       0.75044148       0.99972715       0.25237740 </v>
   <v>       0.74858067       0.25454662       0.00410682 </v>
   <v>       0.49855464       0.99998475       0.49894721 </v>
   <v>       0.49794368       0.24970738       0.74916545 </v>
   <v>       0.75162726       0.00104343       0.75232957 </v>
   <v>       0.74662969       0.25049036       0.49940528 </v>
   <v>       0.49894753       0.50377606       0.00195990 </v>
   <v>       0.50395439       0.75073044       0.24974872 </v>
   <v>       0.74732009       0.50044355       0.24951995 </v>
   <v>       0.75079154       0.75134925       0.00139801 </v>
   <v>       0.50007682       0.49970444       0.50254718 </v>
   <v>       0.49953275       0.74871637       0.75049683 </v>
   <v>       0.74941654       0.49893874       0.74961150 </v>
   <v>       0.75425971       0.75048264       0.49980264 </v>
  </varray>
 </structure>
</modeling>
