unknown system                          
           1
     8.743316    0.000000    0.000000
     0.000000    8.743316    0.000000
     0.000000    0.000000    8.743316
   C    Si
    32    32
Direct configuration=     1
   0.12622119  0.12260879  0.12780032
   0.12574054  0.37244283  0.37621400
   0.37298779  0.12375931  0.37293039
   0.37415919  0.37511448  0.12543004
   0.12666223  0.12557543  0.62274323
   0.12505331  0.37620970  0.87656537
   0.37409495  0.12275525  0.87804097
   0.37556078  0.37539179  0.62703830
   0.12680216  0.62571285  0.12710372
   0.12498588  0.87621125  0.37241207
   0.37550052  0.62824592  0.37160319
   0.37180742  0.87940365  0.12537148
   0.12255753  0.62586281  0.62715219
   0.12417480  0.87418369  0.87376204
   0.37173476  0.62636133  0.87180329
   0.37546870  0.87437829  0.62625680
   0.62094609  0.11932106  0.12060159
   0.62575746  0.37370829  0.37410114
   0.87296007  0.12812808  0.37560290
   0.87331130  0.37802479  0.12313536
   0.62813966  0.12678115  0.62803594
   0.62328974  0.37608932  0.86990885
   0.87589606  0.12399681  0.87450596
   0.87112608  0.37467100  0.62305893
   0.62397226  0.62661042  0.12486936
   0.62070013  0.87659072  0.37866256
   0.87749379  0.62411107  0.37490674
   0.87548958  0.87126173  0.12154665
   0.62782693  0.63011543  0.62276290
   0.62576996  0.87881419  0.87496555
   0.87460532  0.62693156  0.87420995
   0.87304193  0.87050595  0.62107462
   0.99798277  0.00008529  0.00102846
   0.00438980  0.25027342  0.25050048
   0.25151546  0.99997831  0.25203468
   0.24765888  0.24645813  0.00145810
   0.00043286  0.99959208  0.50045284
   0.99767342  0.25052117  0.74990906
   0.24875276  0.99975776  0.75373392
   0.25278702  0.24766679  0.50139677
   0.00129195  0.49657606  0.99861842
   0.00302692  0.74730211  0.24984120
   0.24957409  0.49959566  0.24439961
   0.24932890  0.74940931  0.99810825
   0.99860210  0.49927643  0.50049511
   0.99639786  0.74697003  0.74821020
   0.25038503  0.50307599  0.74771759
   0.24873959  0.75212583  0.50007651
   0.49815523  0.99885926  0.99877775
   0.49976102  0.25035745  0.24950024
   0.75044148  0.99972715  0.25237740
   0.74858067  0.25454662  0.00410682
   0.49855464  0.99998475  0.49894721
   0.49794368  0.24970738  0.74916545
   0.75162726  0.00104343  0.75232957
   0.74662969  0.25049036  0.49940528
   0.49894753  0.50377606  0.00195990
   0.50395439  0.75073044  0.24974872
   0.74732009  0.50044355  0.24951995
   0.75079154  0.75134925  0.00139801
   0.50007682  0.49970444  0.50254718
   0.49953275  0.74871637  0.75049683
   0.74941654  0.49893874  0.74961150
   0.75425971  0.75048264  0.49980264
