       N       E                     dE             d eps       ncg     rms          rms(c)
DAV:   1     0.668702083654E+03    0.66870E+03   -0.99555E+04  4704   0.111E+03
DAV:   2    -0.462890686538E+03   -0.11316E+04   -0.10721E+04  5824   0.221E+02
DAV:   3    -0.537990699122E+03   -0.75100E+02   -0.74409E+02  5688   0.561E+01
DAV:   4    -0.539646926288E+03   -0.16562E+01   -0.16489E+01  5680   0.904E+00
DAV:   5    -0.539695173914E+03   -0.48248E-01   -0.48168E-01  5552   0.145E+00    0.491E+01
DAV:   6    -0.483102736508E+03    0.56592E+02   -0.19012E+02  5344   0.234E+01    0.218E+01
DAV:   7    -0.481735020443E+03    0.13677E+01   -0.15581E+01  5872   0.699E+00    0.973E+00
DAV:   8    -0.481507787784E+03    0.22723E+00   -0.10064E+00  5400   0.195E+00    0.258E+00
DAV:   9    -0.481491699905E+03    0.16088E-01   -0.13830E-01  5440   0.799E-01    0.427E-01
DAV:  10    -0.481494810603E+03   -0.31107E-02   -0.12274E-02  5776   0.243E-01    0.232E-01
DAV:  11    -0.481495798182E+03   -0.98758E-03   -0.19524E-03  5128   0.111E-01    0.750E-02
DAV:  12    -0.481495787377E+03    0.10805E-04   -0.24634E-04  5936   0.394E-02    0.405E-02
DAV:  13    -0.481495798402E+03   -0.11025E-04   -0.91011E-05  5176   0.226E-02    0.108E-02
DAV:  14    -0.481495804928E+03   -0.65258E-05   -0.71880E-06  5496   0.530E-03    0.515E-03
DAV:  15    -0.481495806676E+03   -0.17483E-05   -0.12454E-06  5568   0.260E-03    0.320E-03
DAV:  16    -0.481495806529E+03    0.14717E-06   -0.11601E-07  5664   0.922E-04    0.143E-03
DAV:  17    -0.481495806695E+03   -0.16676E-06   -0.77413E-08  5088   0.605E-04    0.692E-04
DAV:  18    -0.481495806690E+03    0.57444E-08   -0.89477E-09  2776   0.268E-04
   1 F= -.48149581E+03 E0= -.48149894E+03  d E =0.940357E-02
