<?xml version="1.0" encoding="ISO-8859-1"?>
<modeling>
 <generator>
  <i name="program" type="string">vasp </i>
  <i name="version" type="string">6.2.1  </i>
  <i name="subversion" type="string">16May21 (build Jun 06 2020 10:27:25) complex                          parallel </i>
  <i name="platform" type="string">LinuxIFC </i>
  <i name="date" type="string">2024 01 12 </i>
  <i name="time" type="string">18:11:50 </i>
 </generator>
 <incar>
  <i type="int" name="NELM">    60</i>
  <i type="int" name="IBRION">     1</i>
  <i name="EDIFF">      0.00000001</i>
  <i type="int" name="NSW">     0</i>
  <i type="int" name="ISIF">     3</i>
  <i type="int" name="ISYM">     0</i>
  <i type="logical" name="LWAVE"> F  </i>
  <i type="logical" name="LCHARG"> F  </i>
  <i type="string" name="GGA">PE</i>
 </incar>
 <primitive_cell>
  <structure name="primitive_cell" >
   <crystal>
    <varray name="basis" >
     <v>       8.74331558       0.00000000       0.00000000 </v>
     <v>       0.00000000       8.74331558       0.00000000 </v>
     <v>       0.00000000       0.00000000       8.74331558 </v>
    </varray>
    <i name="volume">    668.38771987 </i>
    <varray name="rec_basis" >
     <v>       0.11437309       0.00000000       0.00000000 </v>
     <v>       0.00000000       0.11437309       0.00000000 </v>
     <v>       0.00000000       0.00000000       0.11437309 </v>
    </varray>
   </crystal>
   <varray name="positions" >
    <v>       0.12493777       0.12520480       0.12444082 </v>
    <v>       0.12418297       0.37439746       0.37347733 </v>
    <v>       0.37724886       0.12706944       0.37580706 </v>
    <v>       0.37313101       0.37592442       0.12467808 </v>
    <v>       0.12594263       0.12683626       0.62855510 </v>
    <v>       0.12566261       0.37478478       0.87441826 </v>
    <v>       0.37324261       0.12725955       0.87763139 </v>
    <v>       0.37584502       0.37587337       0.62522455 </v>
    <v>       0.12324576       0.62666747       0.12356094 </v>
    <v>       0.12763183       0.87752480       0.37553388 </v>
    <v>       0.37715261       0.62388188       0.37474487 </v>
    <v>       0.37579837       0.87712390       0.12620510 </v>
    <v>       0.12684951       0.62496733       0.62538353 </v>
    <v>       0.12783600       0.87468127       0.87398792 </v>
    <v>       0.37865320       0.62509392       0.87669852 </v>
    <v>       0.37370910       0.87439138       0.62188773 </v>
    <v>       0.62337932       0.12311022       0.12427631 </v>
    <v>       0.62567099       0.37721650       0.37099137 </v>
    <v>       0.87264073       0.12470663       0.37270153 </v>
    <v>       0.87788535       0.37480319       0.12478631 </v>
    <v>       0.62366516       0.12704312       0.62615919 </v>
    <v>       0.62269043       0.37145916       0.87674994 </v>
    <v>       0.87429323       0.12700459       0.87442485 </v>
    <v>       0.86980151       0.37263541       0.62488984 </v>
    <v>       0.62467894       0.62557132       0.12353676 </v>
    <v>       0.62825394       0.87558165       0.37669298 </v>
    <v>       0.87397524       0.62459011       0.37546767 </v>
    <v>       0.87539356       0.87518295       0.12344015 </v>
    <v>       0.62361352       0.62474745       0.62621813 </v>
    <v>       0.62412886       0.87886860       0.87722320 </v>
    <v>       0.87506143       0.62336270       0.87502797 </v>
    <v>       0.87728170       0.87663569       0.62236914 </v>
    <v>       0.00007538       0.99985500       0.00224921 </v>
    <v>       0.99978197       0.25150982       0.24882855 </v>
    <v>       0.24864926       0.99922704       0.25062719 </v>
    <v>       0.24789225       0.24897386       0.99897651 </v>
    <v>       0.00013767       0.99781804       0.49806476 </v>
    <v>       0.00342433       0.24905461       0.74889260 </v>
    <v>       0.25065282       0.00041612       0.75506164 </v>
    <v>       0.25345223       0.24966234       0.50079319 </v>
    <v>       0.00036604       0.49909777       0.00344907 </v>
    <v>       0.00168448       0.75234757       0.25198562 </v>
    <v>       0.24921285       0.49941547       0.25316279 </v>
    <v>       0.24800233       0.74788901       0.00054396 </v>
    <v>       0.00047702       0.49810180       0.50033865 </v>
    <v>       0.99929677       0.75029216       0.74840926 </v>
    <v>       0.24747471       0.49977753       0.74609025 </v>
    <v>       0.24822107       0.75035327       0.50159760 </v>
    <v>       0.50328377       0.00128631       0.00411343 </v>
    <v>       0.50111546       0.25148127       0.24783774 </v>
    <v>       0.75052709       0.99934230       0.25218492 </v>
    <v>       0.75096906       0.24660010       0.99786867 </v>
    <v>       0.50171204       0.99842597       0.49773398 </v>
    <v>       0.49898493       0.25225426       0.75094922 </v>
    <v>       0.74814708       0.99969843       0.74979522 </v>
    <v>       0.74814107       0.24975361       0.49652940 </v>
    <v>       0.50053869       0.50202577       0.99759500 </v>
    <v>       0.49917136       0.74709280       0.25138327 </v>
    <v>       0.74901055       0.50347035       0.25076540 </v>
    <v>       0.75234284       0.75370739       0.99703815 </v>
    <v>       0.49876189       0.49936558       0.50127659 </v>
    <v>       0.49839323       0.75206350       0.75027562 </v>
    <v>       0.75013582       0.49983359       0.75165308 </v>
    <v>       0.75163015       0.75028370       0.50043480 </v>
   </varray>
  </structure>
  <varray name="primitive_index" >
   <v type="int" >        1 </v>
   <v type="int" >        2 </v>
   <v type="int" >        3 </v>
   <v type="int" >        4 </v>
   <v type="int" >        5 </v>
   <v type="int" >        6 </v>
   <v type="int" >        7 </v>
   <v type="int" >        8 </v>
   <v type="int" >        9 </v>
   <v type="int" >       10 </v>
   <v type="int" >       11 </v>
   <v type="int" >       12 </v>
   <v type="int" >       13 </v>
   <v type="int" >       14 </v>
   <v type="int" >       15 </v>
   <v type="int" >       16 </v>
   <v type="int" >       17 </v>
   <v type="int" >       18 </v>
   <v type="int" >       19 </v>
   <v type="int" >       20 </v>
   <v type="int" >       21 </v>
   <v type="int" >       22 </v>
   <v type="int" >       23 </v>
   <v type="int" >       24 </v>
   <v type="int" >       25 </v>
   <v type="int" >       26 </v>
   <v type="int" >       27 </v>
   <v type="int" >       28 </v>
   <v type="int" >       29 </v>
   <v type="int" >       30 </v>
   <v type="int" >       31 </v>
   <v type="int" >       32 </v>
   <v type="int" >       33 </v>
   <v type="int" >       34 </v>
   <v type="int" >       35 </v>
   <v type="int" >       36 </v>
   <v type="int" >       37 </v>
   <v type="int" >       38 </v>
   <v type="int" >       39 </v>
   <v type="int" >       40 </v>
   <v type="int" >       41 </v>
   <v type="int" >       42 </v>
   <v type="int" >       43 </v>
   <v type="int" >       44 </v>
   <v type="int" >       45 </v>
   <v type="int" >       46 </v>
   <v type="int" >       47 </v>
   <v type="int" >       48 </v>
   <v type="int" >       49 </v>
   <v type="int" >       50 </v>
   <v type="int" >       51 </v>
   <v type="int" >       52 </v>
   <v type="int" >       53 </v>
   <v type="int" >       54 </v>
   <v type="int" >       55 </v>
   <v type="int" >       56 </v>
   <v type="int" >       57 </v>
   <v type="int" >       58 </v>
   <v type="int" >       59 </v>
   <v type="int" >       60 </v>
   <v type="int" >       61 </v>
   <v type="int" >       62 </v>
   <v type="int" >       63 </v>
   <v type="int" >       64 </v>
  </varray>
 </primitive_cell>
 <kpoints>
  <generation param="Monkhorst-Pack">
   <v type="int" name="divisions">       3        3        3 </v>
   <v name="usershift">      0.00000000       0.00000000       0.00000000 </v>
   <v name="genvec1">      0.33333333       0.00000000       0.00000000 </v>
   <v name="genvec2">      0.00000000       0.33333333       0.00000000 </v>
   <v name="genvec3">      0.00000000       0.00000000       0.33333333 </v>
   <v name="shift">      0.00000000       0.00000000       0.00000000 </v>
  </generation>
  <varray name="kpointlist" >
   <v>       0.00000000       0.00000000       0.00000000 </v>
   <v>       0.33333333       0.00000000       0.00000000 </v>
   <v>       0.00000000       0.33333333       0.00000000 </v>
   <v>       0.00000000       0.00000000       0.33333333 </v>
   <v>       0.33333333       0.33333333       0.00000000 </v>
   <v>       0.00000000       0.33333333       0.33333333 </v>
   <v>       0.33333333       0.00000000       0.33333333 </v>
   <v>      -0.33333333       0.33333333       0.00000000 </v>
   <v>      -0.33333333       0.00000000       0.33333333 </v>
   <v>       0.00000000      -0.33333333       0.33333333 </v>
   <v>       0.33333333       0.33333333       0.33333333 </v>
   <v>      -0.33333333       0.33333333       0.33333333 </v>
   <v>      -0.33333333      -0.33333333       0.33333333 </v>
   <v>       0.33333333      -0.33333333       0.33333333 </v>
  </varray>
  <varray name="weights" >
   <v>       0.03703704 </v>
   <v>       0.07407407 </v>
   <v>       0.07407407 </v>
   <v>       0.07407407 </v>
   <v>       0.07407407 </v>
   <v>       0.07407407 </v>
   <v>       0.07407407 </v>
   <v>       0.07407407 </v>
   <v>       0.07407407 </v>
   <v>       0.07407407 </v>
   <v>       0.07407407 </v>
   <v>       0.07407407 </v>
   <v>       0.07407407 </v>
   <v>       0.07407407 </v>
  </varray>
 </kpoints>
 <parameters>
  <separator name="general" >
   <i type="string" name="SYSTEM">unknown system</i>
   <i type="logical" name="LCOMPAT"> F  </i>
  </separator>
  <separator name="electronic" >
   <i type="string" name="PREC">normal</i>
   <i name="ENMAX">    400.00000000</i>
   <i name="ENAUG">    644.87300000</i>
   <i name="EDIFF">      0.00000001</i>
   <i type="int" name="IALGO">    38</i>
   <i type="int" name="IWAVPR">    10</i>
   <i type="int" name="NBANDS">   168</i>
   <i type="int" name="NBANDSLOW">    -1</i>
   <i type="int" name="NBANDSHIGH">    -1</i>
   <i name="NELECT">    256.00000000</i>
   <i type="int" name="TURBO">     0</i>
   <i type="int" name="IRESTART">     0</i>
   <i type="int" name="NREBOOT">     0</i>
   <i type="int" name="NMIN">     0</i>
   <i name="EREF">      0.00000000</i>
   <separator name="electronic smearing" >
    <i type="int" name="ISMEAR">     1</i>
    <i name="SIGMA">      0.20000000</i>
    <i name="KSPACING">      0.50000000</i>
    <i type="logical" name="KGAMMA"> T  </i>
    <i type="logical" name="KBLOWUP"> T  </i>
   </separator>
   <separator name="electronic projectors" >
    <i type="logical" name="LREAL"> F  </i>
    <v name="ROPT">      0.00000000      0.00000000</v>
    <i type="int" name="LMAXPAW">  -100</i>
    <i type="int" name="LMAXMIX">     2</i>
    <i type="logical" name="NLSPLINE"> F  </i>
   </separator>
   <separator name="electronic startup" >
    <i type="int" name="ISTART">     0</i>
    <i type="int" name="ICHARG">     2</i>
    <i type="int" name="INIWAV">     1</i>
   </separator>
   <separator name="electronic spin" >
    <i type="int" name="ISPIN">     1</i>
    <i type="logical" name="LNONCOLLINEAR"> F  </i>
    <v name="MAGMOM">      1.00000000      1.00000000      1.00000000      1.00000000      1.00000000      1.00000000      1.00000000      1.00000000      1.00000000      1.00000000      1.00000000      1.00000000      1.00000000      1.00000000      1.00000000      1.00000000      1.00000000      1.00000000      1.00000000      1.00000000
      1.00000000      1.00000000      1.00000000      1.00000000      1.00000000      1.00000000      1.00000000      1.00000000      1.00000000      1.00000000      1.00000000      1.00000000      1.00000000      1.00000000      1.00000000      1.00000000      1.00000000      1.00000000      1.00000000      1.00000000
      1.00000000      1.00000000      1.00000000      1.00000000      1.00000000      1.00000000      1.00000000      1.00000000      1.00000000      1.00000000      1.00000000      1.00000000      1.00000000      1.00000000      1.00000000      1.00000000      1.00000000      1.00000000      1.00000000      1.00000000
      1.00000000      1.00000000      1.00000000      1.00000000</v>
    <i name="NUPDOWN">     -1.00000000</i>
    <i type="logical" name="LSORBIT"> F  </i>
    <v name="SAXIS">      0.00000000      0.00000000      1.00000000</v>
    <i type="logical" name="LSPIRAL"> F  </i>
    <v name="QSPIRAL">      0.00000000      0.00000000      0.00000000</v>
    <i type="logical" name="LZEROZ"> F  </i>
   </separator>
   <separator name="electronic exchange-correlation" >
    <i type="logical" name="LASPH"> F  </i>
    <i type="logical" name="LMETAGGA"> F  </i>
   </separator>
   <separator name="electronic convergence" >
    <i type="int" name="NELM">    60</i>
    <i type="int" name="NELMDL">    -5</i>
    <i type="int" name="NELMIN">     2</i>
    <i name="ENINI">    400.00000000</i>
    <separator name="electronic convergence detail" >
     <i type="logical" name="LDIAG"> T  </i>
     <i type="logical" name="LSUBROT"> F  </i>
     <i name="WEIMIN">      0.00000000</i>
     <i name="EBREAK">      0.00000000</i>
     <i name="DEPER">      0.30000000</i>
     <i type="int" name="NRMM">     4</i>
     <i name="TIME">      0.40000000</i>
    </separator>
   </separator>
   <separator name="electronic mixer" >
    <i name="AMIX">      0.40000000</i>
    <i name="BMIX">      1.00000000</i>
    <i name="AMIN">      0.10000000</i>
    <i name="AMIX_MAG">      1.60000000</i>
    <i name="BMIX_MAG">      1.00000000</i>
    <separator name="electronic mixer details" >
     <i type="int" name="IMIX">     4</i>
     <i type="logical" name="MIXFIRST"> F  </i>
     <i type="int" name="MAXMIX">   -45</i>
     <i name="WC">    100.00000000</i>
     <i type="int" name="INIMIX">     1</i>
     <i type="int" name="MIXPRE">     1</i>
     <i type="int" name="MREMOVE">     5</i>
    </separator>
   </separator>
   <separator name="electronic dipolcorrection" >
    <i type="logical" name="LDIPOL"> F  </i>
    <i type="logical" name="LMONO"> F  </i>
    <i type="int" name="IDIPOL">     0</i>
    <i name="EPSILON">      1.00000000</i>
    <v name="DIPOL">   -100.00000000   -100.00000000   -100.00000000</v>
    <i name="EFIELD">      0.00000000</i>
   </separator>
  </separator>
  <separator name="grids" >
   <i type="int" name="NGX">    48</i>
   <i type="int" name="NGY">    48</i>
   <i type="int" name="NGZ">    48</i>
   <i type="int" name="NGXF">    96</i>
   <i type="int" name="NGYF">    96</i>
   <i type="int" name="NGZF">    96</i>
   <i type="logical" name="ADDGRID"> F  </i>
  </separator>
  <separator name="ionic" >
   <i type="int" name="NSW">     0</i>
   <i type="int" name="IBRION">    -1</i>
   <i type="int" name="MDALGO">     0</i>
   <i type="int" name="ISIF">     3</i>
   <i name="PSTRESS">      0.00000000</i>
   <i name="EDIFFG">      0.00000010</i>
   <i type="int" name="NFREE">     0</i>
   <i name="POTIM">      0.50000000</i>
   <i name="SMASS">     -3.00000000</i>
   <i name="SCALEE">      1.00000000</i>
  </separator>
  <separator name="ionic md" >
   <i name="TEBEG">      0.00010000</i>
   <i name="TEEND">      0.00010000</i>
   <i type="int" name="NBLOCK">     1</i>
   <i type="int" name="KBLOCK">     1</i>
   <i type="int" name="NPACO">   256</i>
   <i name="APACO">     16.00000000</i>
  </separator>
  <separator name="symmetry" >
   <i type="int" name="ISYM">     0</i>
   <i name="SYMPREC">      0.00001000</i>
  </separator>
  <separator name="dos" >
   <i type="int" name="LORBIT">     0</i>
   <v name="RWIGS">     -1.00000000     -1.00000000</v>
   <i type="int" name="NEDOS">   301</i>
   <i name="EMIN">     10.00000000</i>
   <i name="EMAX">    -10.00000000</i>
   <i name="EFERMI">      0.00000000</i>
  </separator>
  <separator name="writing" >
   <i type="int" name="NWRITE">     2</i>
   <i type="logical" name="LWAVE"> F  </i>
   <i type="logical" name="LDOWNSAMPLE"> F  </i>
   <i type="logical" name="LCHARG"> F  </i>
   <i type="logical" name="LPARD"> F  </i>
   <i type="logical" name="LVTOT"> F  </i>
   <i type="logical" name="LVHAR"> F  </i>
   <i type="logical" name="LELF"> F  </i>
   <i type="logical" name="LOPTICS"> F  </i>
   <v name="STM">      0.00000000      0.00000000      0.00000000      0.00000000      0.00000000      0.00000000      0.00000000</v>
  </separator>
  <separator name="performance" >
   <i type="int" name="NPAR">     8</i>
   <i type="int" name="NSIM">     4</i>
   <i type="int" name="NBLK">    -1</i>
   <i type="logical" name="LPLANE"> T  </i>
   <i type="logical" name="LSCALAPACK"> T  </i>
   <i type="logical" name="LSCAAWARE"> F  </i>
   <i type="logical" name="LSCALU"> F  </i>
   <i type="logical" name="LASYNC"> F  </i>
   <i type="logical" name="LORBITALREAL"> F  </i>
  </separator>
  <separator name="miscellaneous" >
   <i type="int" name="IDIOT">     3</i>
   <i type="int" name="PHON_NSTRUCT">    -1</i>
   <i type="logical" name="LMUSIC"> F  </i>
   <v name="POMASS">     12.01100000     28.08500000</v>
   <v name="DARWINR">      0.00000000      0.00000000</v>
   <v name="DARWINV">      1.00000000      1.00000000</v>
   <i type="logical" name="LCORR"> T  </i>
  </separator>
  <i type="logical" name="GGA_COMPAT"> T  </i>
  <i type="logical" name="LBERRY"> F  </i>
  <i type="int" name="ICORELEVEL">     0</i>
  <i type="logical" name="LDAU"> F  </i>
  <i type="int" name="I_CONSTRAINED_M">     0</i>
  <separator name="electronic exchange-correlation" >
   <i type="string" name="GGA">PE</i>
   <i type="int" name="VOSKOWN">     0</i>
   <i type="logical" name="LHFCALC"> F  </i>
   <i type="string" name="PRECFOCK"></i>
   <i type="logical" name="LSYMGRAD"> F  </i>
   <i type="logical" name="LHFONE"> F  </i>
   <i type="logical" name="LRHFCALC"> F  </i>
   <i type="logical" name="LTHOMAS"> F  </i>
   <i type="logical" name="LMODELHF"> F  </i>
   <i type="logical" name="LFOCKACE"> F  </i>
   <i name="ENCUT4O">     -1.00000000</i>
   <i type="int" name="EXXOEP">     0</i>
   <i type="int" name="FOURORBIT">     0</i>
   <i name="AEXX">      0.00000000</i>
   <i name="HFALPHA">      0.00000000</i>
   <i name="MCALPHA">      0.00000000</i>
   <i name="ALDAX">      1.00000000</i>
   <i name="AGGAX">      1.00000000</i>
   <i name="ALDAC">      1.00000000</i>
   <i name="AGGAC">      1.00000000</i>
   <i type="int" name="NKREDX">     1</i>
   <i type="int" name="NKREDY">     1</i>
   <i type="int" name="NKREDZ">     1</i>
   <i type="logical" name="SHIFTRED"> F  </i>
   <i type="logical" name="ODDONLY"> F  </i>
   <i type="logical" name="EVENONLY"> F  </i>
   <i type="int" name="LMAXFOCK">     0</i>
   <i type="int" name="NMAXFOCKAE">     0</i>
   <i type="logical" name="LFOCKAEDFT"> F  </i>
   <i name="HFSCREEN">      0.00000000</i>
   <i name="HFSCREENC">      0.00000000</i>
   <i type="int" name="NBANDSGWLOW">     0</i>
  </separator>
  <separator name="vdW DFT" >
   <i type="logical" name="LUSE_VDW"> F  </i>
   <i name="Zab_VDW">     -0.84910000</i>
   <i name="PARAM1">      0.12340000</i>
   <i name="PARAM2">      1.00000000</i>
   <i name="PARAM3">      0.00000000</i>
  </separator>
  <separator name="model GW" >
   <i type="int" name="MODEL_GW">     0</i>
   <i name="MODEL_EPS0">      6.26613487</i>
   <i name="MODEL_ALPHA">      1.00000000</i>
  </separator>
  <separator name="linear response parameters" >
   <i type="logical" name="LEPSILON"> F  </i>
   <i type="logical" name="LRPA"> F  </i>
   <i type="logical" name="LNABLA"> F  </i>
   <i type="logical" name="LVEL"> F  </i>
   <i type="int" name="KINTER">     0</i>
   <i name="CSHIFT">      0.10000000</i>
   <i name="OMEGAMAX">     -1.00000000</i>
   <i name="DEG_THRESHOLD">      0.00200000</i>
   <i name="RTIME">     -0.10000000</i>
   <i name="WPLASMAI">      0.00000000</i>
   <v name="DFIELD">      0.00000000      0.00000000      0.00000000</v>
   <v name="WPLASMA">      0.00000000      0.00000000      0.00000000      0.00000000      0.00000000      0.00000000      0.00000000      0.00000000      0.00000000</v>
  </separator>
  <separator name="orbital magnetization" >
   <i type="logical" name="NUCIND"> F  </i>
   <v name="MAGPOS">      0.00000000      0.00000000      0.00000000</v>
   <i type="logical" name="LNICSALL"> T  </i>
   <i type="logical" name="ORBITALMAG"> F  </i>
   <i type="logical" name="LMAGBLOCH"> F  </i>
   <i type="logical" name="LCHIMAG"> F  </i>
   <i type="logical" name="LGAUGE"> T  </i>
   <i type="int" name="MAGATOM">     0</i>
   <v name="MAGDIPOL">      0.00000000      0.00000000      0.00000000</v>
   <v name="AVECCONST">      0.00000000      0.00000000      0.00000000</v>
  </separator>
  <separator name="response functions" >
   <i type="logical" name="LFINITE_TEMPERATURE"> F  </i>
   <i type="logical" name="LADDER"> F  </i>
   <i type="logical" name="LRPAFORCE"> F  </i>
   <i type="logical" name="LFXC"> F  </i>
   <i type="logical" name="LHARTREE"> T  </i>
   <i type="int" name="IBSE">     0</i>
   <v type="int" name="KPOINT">    -1     0     0     0</v>
   <i type="logical" name="LTCTC"> F  </i>
   <i type="logical" name="LTCTE"> F  </i>
   <i type="logical" name="LTETE"> F  </i>
   <i type="logical" name="LTRIPLET"> F  </i>
   <i type="logical" name="LFXCEPS"> F  </i>
   <i type="logical" name="LFXHEG"> F  </i>
   <i type="int" name="NATURALO">     2</i>
   <i type="logical" name="LHOLEGF"> F  </i>
   <i type="logical" name="L2ORDER"> F  </i>
   <i type="logical" name="LDMP1"> F  </i>
   <i type="logical" name="LMP2LT"> F  </i>
   <i type="logical" name="LSMP2LT"> F  </i>
   <i type="logical" name="LGWLF"> F  </i>
   <i name="ENCUTGW">     -2.00000000</i>
   <i name="ENCUTGWSOFT">     -2.00000000</i>
   <i name="ENCUTLF">     -1.00000000</i>
   <i type="logical" name="LESF_SPLINES"> F  </i>
   <i type="int" name="LMAXMP2">    -1</i>
   <i name="SCISSOR">      0.00000000</i>
   <i type="int" name="NOMEGA">     0</i>
   <i type="int" name="NOMEGAR">     0</i>
   <i type="int" name="NBANDSGW">    -1</i>
   <i type="int" name="NBANDSO">    -1</i>
   <i type="int" name="NBANDSV">    -1</i>
   <i type="int" name="NELM">    60</i>
   <i type="int" name="NELMHF">     1</i>
   <i type="int" name="DIM">     3</i>
   <i type="int" name="IESPILON">     4</i>
   <i type="int" name="ANTIRES">     0</i>
   <i name="OMEGAMAX">    -30.00000000</i>
   <i name="OMEGAMIN">    -30.00000000</i>
   <i name="OMEGATL">   -200.00000000</i>
   <i type="int" name="OMEGAGRID">     0</i>
   <i name="CSHIFT">     -0.10000000</i>
   <i type="logical" name="LSELFENERGY"> F  </i>
   <i type="logical" name="LSPECTRAL"> F  </i>
   <i type="logical" name="LSPECTRALGW"> F  </i>
   <i type="logical" name="LSINGLES"> F  </i>
   <i type="logical" name="LFERMIGW"> F  </i>
   <i type="logical" name="ODDONLYGW"> F  </i>
   <i type="logical" name="EVENONLYGW"> F  </i>
   <i type="int" name="NKREDLFX">     1</i>
   <i type="int" name="NKREDLFY">     1</i>
   <i type="int" name="NKREDLFZ">     1</i>
   <i type="int" name="MAXMEM">  2800</i>
   <i type="int" name="TELESCOPE">     0</i>
   <i type="int" name="NTAUPAR">    -1</i>
   <i type="int" name="NOMEGAPAR">    -1</i>
   <i name="DAMP_NEWTON">      0.80000001</i>
   <i name="LAMBDA">      1.00000000</i>
  </separator>
  <separator name="External order field" >
   <i name="OFIELD_KAPPA">      0.00000000</i>
   <v name="OFIELD_K">      0.00000000      0.00000000      0.00000000</v>
   <i name="OFIELD_Q6_NEAR">      0.00000000</i>
   <i name="OFIELD_Q6_FAR">      0.00000000</i>
   <i name="OFIELD_A">      0.00000000</i>
  </separator>
 </parameters>
 <atominfo>
  <atoms>      64 </atoms>
  <types>       2 </types>
  <array name="atoms" >
   <dimension dim="1">ion</dimension>
   <field type="string">element</field>
   <field type="int">atomtype</field>
   <set>
    <rc><c>C </c><c>   1</c></rc>
    <rc><c>C </c><c>   1</c></rc>
    <rc><c>C </c><c>   1</c></rc>
    <rc><c>C </c><c>   1</c></rc>
    <rc><c>C </c><c>   1</c></rc>
    <rc><c>C </c><c>   1</c></rc>
    <rc><c>C </c><c>   1</c></rc>
    <rc><c>C </c><c>   1</c></rc>
    <rc><c>C </c><c>   1</c></rc>
    <rc><c>C </c><c>   1</c></rc>
    <rc><c>C </c><c>   1</c></rc>
    <rc><c>C </c><c>   1</c></rc>
    <rc><c>C </c><c>   1</c></rc>
    <rc><c>C </c><c>   1</c></rc>
    <rc><c>C </c><c>   1</c></rc>
    <rc><c>C </c><c>   1</c></rc>
    <rc><c>C </c><c>   1</c></rc>
    <rc><c>C </c><c>   1</c></rc>
    <rc><c>C </c><c>   1</c></rc>
    <rc><c>C </c><c>   1</c></rc>
    <rc><c>C </c><c>   1</c></rc>
    <rc><c>C </c><c>   1</c></rc>
    <rc><c>C </c><c>   1</c></rc>
    <rc><c>C </c><c>   1</c></rc>
    <rc><c>C </c><c>   1</c></rc>
    <rc><c>C </c><c>   1</c></rc>
    <rc><c>C </c><c>   1</c></rc>
    <rc><c>C </c><c>   1</c></rc>
    <rc><c>C </c><c>   1</c></rc>
    <rc><c>C </c><c>   1</c></rc>
    <rc><c>C </c><c>   1</c></rc>
    <rc><c>C </c><c>   1</c></rc>
    <rc><c>Si</c><c>   2</c></rc>
    <rc><c>Si</c><c>   2</c></rc>
    <rc><c>Si</c><c>   2</c></rc>
    <rc><c>Si</c><c>   2</c></rc>
    <rc><c>Si</c><c>   2</c></rc>
    <rc><c>Si</c><c>   2</c></rc>
    <rc><c>Si</c><c>   2</c></rc>
    <rc><c>Si</c><c>   2</c></rc>
    <rc><c>Si</c><c>   2</c></rc>
    <rc><c>Si</c><c>   2</c></rc>
    <rc><c>Si</c><c>   2</c></rc>
    <rc><c>Si</c><c>   2</c></rc>
    <rc><c>Si</c><c>   2</c></rc>
    <rc><c>Si</c><c>   2</c></rc>
    <rc><c>Si</c><c>   2</c></rc>
    <rc><c>Si</c><c>   2</c></rc>
    <rc><c>Si</c><c>   2</c></rc>
    <rc><c>Si</c><c>   2</c></rc>
    <rc><c>Si</c><c>   2</c></rc>
    <rc><c>Si</c><c>   2</c></rc>
    <rc><c>Si</c><c>   2</c></rc>
    <rc><c>Si</c><c>   2</c></rc>
    <rc><c>Si</c><c>   2</c></rc>
    <rc><c>Si</c><c>   2</c></rc>
    <rc><c>Si</c><c>   2</c></rc>
    <rc><c>Si</c><c>   2</c></rc>
    <rc><c>Si</c><c>   2</c></rc>
    <rc><c>Si</c><c>   2</c></rc>
    <rc><c>Si</c><c>   2</c></rc>
    <rc><c>Si</c><c>   2</c></rc>
    <rc><c>Si</c><c>   2</c></rc>
    <rc><c>Si</c><c>   2</c></rc>
   </set>
  </array>
  <array name="atomtypes" >
   <dimension dim="1">type</dimension>
   <field type="int">atomspertype</field>
   <field type="string">element</field>
   <field>mass</field>
   <field>valence</field>
   <field type="string">pseudopotential</field>
   <set>
    <rc><c>  32</c><c>C </c><c>     12.01100000</c><c>      4.00000000</c><c>  PAW_PBE C 08Apr2002                   </c></rc>
    <rc><c>  32</c><c>Si</c><c>     28.08500000</c><c>      4.00000000</c><c>  PAW_PBE Si 05Jan2001                  </c></rc>
   </set>
  </array>
 </atominfo>
 <structure name="initialpos" >
  <crystal>
   <varray name="basis" >
    <v>       8.74331558       0.00000000       0.00000000 </v>
    <v>       0.00000000       8.74331558       0.00000000 </v>
    <v>       0.00000000       0.00000000       8.74331558 </v>
   </varray>
   <i name="volume">    668.38771987 </i>
   <varray name="rec_basis" >
    <v>       0.11437309       0.00000000       0.00000000 </v>
    <v>       0.00000000       0.11437309       0.00000000 </v>
    <v>       0.00000000       0.00000000       0.11437309 </v>
   </varray>
  </crystal>
  <varray name="positions" >
   <v>       0.12493777       0.12520480       0.12444082 </v>
   <v>       0.12418297       0.37439746       0.37347733 </v>
   <v>       0.37724886       0.12706944       0.37580706 </v>
   <v>       0.37313101       0.37592442       0.12467808 </v>
   <v>       0.12594263       0.12683626       0.62855510 </v>
   <v>       0.12566261       0.37478478       0.87441826 </v>
   <v>       0.37324261       0.12725955       0.87763139 </v>
   <v>       0.37584502       0.37587337       0.62522455 </v>
   <v>       0.12324576       0.62666747       0.12356094 </v>
   <v>       0.12763183       0.87752480       0.37553388 </v>
   <v>       0.37715261       0.62388188       0.37474487 </v>
   <v>       0.37579837       0.87712390       0.12620510 </v>
   <v>       0.12684951       0.62496733       0.62538353 </v>
   <v>       0.12783600       0.87468127       0.87398792 </v>
   <v>       0.37865320       0.62509392       0.87669852 </v>
   <v>       0.37370910       0.87439138       0.62188773 </v>
   <v>       0.62337932       0.12311022       0.12427631 </v>
   <v>       0.62567099       0.37721650       0.37099137 </v>
   <v>       0.87264073       0.12470663       0.37270153 </v>
   <v>       0.87788535       0.37480319       0.12478631 </v>
   <v>       0.62366516       0.12704312       0.62615919 </v>
   <v>       0.62269043       0.37145916       0.87674994 </v>
   <v>       0.87429323       0.12700459       0.87442485 </v>
   <v>       0.86980151       0.37263541       0.62488984 </v>
   <v>       0.62467894       0.62557132       0.12353676 </v>
   <v>       0.62825394       0.87558165       0.37669298 </v>
   <v>       0.87397524       0.62459011       0.37546767 </v>
   <v>       0.87539356       0.87518295       0.12344015 </v>
   <v>       0.62361352       0.62474745       0.62621813 </v>
   <v>       0.62412886       0.87886860       0.87722320 </v>
   <v>       0.87506143       0.62336270       0.87502797 </v>
   <v>       0.87728170       0.87663569       0.62236914 </v>
   <v>       0.00007538       0.99985500       0.00224921 </v>
   <v>       0.99978197       0.25150982       0.24882855 </v>
   <v>       0.24864926       0.99922704       0.25062719 </v>
   <v>       0.24789225       0.24897386       0.99897651 </v>
   <v>       0.00013767       0.99781804       0.49806476 </v>
   <v>       0.00342433       0.24905461       0.74889260 </v>
   <v>       0.25065282       0.00041612       0.75506164 </v>
   <v>       0.25345223       0.24966234       0.50079319 </v>
   <v>       0.00036604       0.49909777       0.00344907 </v>
   <v>       0.00168448       0.75234757       0.25198562 </v>
   <v>       0.24921285       0.49941547       0.25316279 </v>
   <v>       0.24800233       0.74788901       0.00054396 </v>
   <v>       0.00047702       0.49810180       0.50033865 </v>
   <v>       0.99929677       0.75029216       0.74840926 </v>
   <v>       0.24747471       0.49977753       0.74609025 </v>
   <v>       0.24822107       0.75035327       0.50159760 </v>
   <v>       0.50328377       0.00128631       0.00411343 </v>
   <v>       0.50111546       0.25148127       0.24783774 </v>
   <v>       0.75052709       0.99934230       0.25218492 </v>
   <v>       0.75096906       0.24660010       0.99786867 </v>
   <v>       0.50171204       0.99842597       0.49773398 </v>
   <v>       0.49898493       0.25225426       0.75094922 </v>
   <v>       0.74814708       0.99969843       0.74979522 </v>
   <v>       0.74814107       0.24975361       0.49652940 </v>
   <v>       0.50053869       0.50202577       0.99759500 </v>
   <v>       0.49917136       0.74709280       0.25138327 </v>
   <v>       0.74901055       0.50347035       0.25076540 </v>
   <v>       0.75234284       0.75370739       0.99703815 </v>
   <v>       0.49876189       0.49936558       0.50127659 </v>
   <v>       0.49839323       0.75206350       0.75027562 </v>
   <v>       0.75013582       0.49983359       0.75165308 </v>
   <v>       0.75163015       0.75028370       0.50043480 </v>
  </varray>
 </structure>
 <calculation>
  <scstep>
   <time name="dav">    4.87    4.87</time>
   <time name="total">    4.89    4.89</time>
   <energy>
    <i name="alphaZ">    354.85177120 </i>
    <i name="ewald">  -9082.48266309 </i>
    <i name="hartreedc">   -671.13434732 </i>
    <i name="XCdc">    145.84110032 </i>
    <i name="pawpsdc">   6292.66707184 </i>
    <i name="pawaedc">  -5747.90303932 </i>
    <i name="eentropy">      0.01134763 </i>
    <i name="bandstr">   1370.67579919 </i>
    <i name="atom">   8006.17504320 </i>
    <i name="e_fr_energy">    668.70208365 </i>
    <i name="e_wo_entrp">    668.69073603 </i>
    <i name="e_0_energy">    668.69830111 </i>
   </energy>
  </scstep>
  <scstep>
   <time name="dav">    5.60    5.60</time>
   <time name="total">    5.60    5.60</time>
   <energy>
    <i name="e_fr_energy">   -462.89068654 </i>
    <i name="e_wo_entrp">   -462.90232443 </i>
    <i name="e_0_energy">   -462.89456583 </i>
   </energy>
  </scstep>
  <scstep>
   <time name="dav">    5.53    5.54</time>
   <time name="total">    5.53    5.54</time>
   <energy>
    <i name="e_fr_energy">   -537.99069912 </i>
    <i name="e_wo_entrp">   -538.01061227 </i>
    <i name="e_0_energy">   -537.99733684 </i>
   </energy>
  </scstep>
  <scstep>
   <time name="dav">    5.51    5.51</time>
   <time name="total">    5.51    5.52</time>
   <energy>
    <i name="e_fr_energy">   -539.64692629 </i>
    <i name="e_wo_entrp">   -539.66762348 </i>
    <i name="e_0_energy">   -539.65382535 </i>
   </energy>
  </scstep>
  <scstep>
   <time name="dav">    5.40    5.40</time>
   <time name="total">    5.51    5.51</time>
   <energy>
    <i name="e_fr_energy">   -539.69517391 </i>
    <i name="e_wo_entrp">   -539.71584012 </i>
    <i name="e_0_energy">   -539.70206265 </i>
   </energy>
  </scstep>
  <scstep>
   <time name="dav">    5.23    5.23</time>
   <time name="total">    5.38    5.38</time>
   <energy>
    <i name="e_fr_energy">   -483.10273651 </i>
    <i name="e_wo_entrp">   -483.11308408 </i>
    <i name="e_0_energy">   -483.10618570 </i>
   </energy>
  </scstep>
  <scstep>
   <time name="dav">    5.63    5.63</time>
   <time name="total">    5.80    5.80</time>
   <energy>
    <i name="e_fr_energy">   -481.73502044 </i>
    <i name="e_wo_entrp">   -481.74433787 </i>
    <i name="e_0_energy">   -481.73812625 </i>
   </energy>
  </scstep>
  <scstep>
   <time name="dav">    5.27    5.27</time>
   <time name="total">    5.43    5.43</time>
   <energy>
    <i name="e_fr_energy">   -481.50778778 </i>
    <i name="e_wo_entrp">   -481.51730059 </i>
    <i name="e_0_energy">   -481.51095872 </i>
   </energy>
  </scstep>
  <scstep>
   <time name="dav">    5.31    5.31</time>
   <time name="total">    5.50    5.50</time>
   <energy>
    <i name="e_fr_energy">   -481.49169990 </i>
    <i name="e_wo_entrp">   -481.50110675 </i>
    <i name="e_0_energy">   -481.49483552 </i>
   </energy>
  </scstep>
  <scstep>
   <time name="dav">    5.56    5.56</time>
   <time name="total">    5.72    5.73</time>
   <energy>
    <i name="e_fr_energy">   -481.49481060 </i>
    <i name="e_wo_entrp">   -481.50421312 </i>
    <i name="e_0_energy">   -481.49794478 </i>
   </energy>
  </scstep>
  <scstep>
   <time name="dav">    5.07    5.07</time>
   <time name="total">    5.23    5.23</time>
   <energy>
    <i name="e_fr_energy">   -481.49579818 </i>
    <i name="e_wo_entrp">   -481.50520380 </i>
    <i name="e_0_energy">   -481.49893339 </i>
   </energy>
  </scstep>
  <scstep>
   <time name="dav">    5.68    5.68</time>
   <time name="total">    5.84    5.84</time>
   <energy>
    <i name="e_fr_energy">   -481.49578738 </i>
    <i name="e_wo_entrp">   -481.50518950 </i>
    <i name="e_0_energy">   -481.49892142 </i>
   </energy>
  </scstep>
  <scstep>
   <time name="dav">    5.10    5.10</time>
   <time name="total">    5.26    5.26</time>
   <energy>
    <i name="e_fr_energy">   -481.49579840 </i>
    <i name="e_wo_entrp">   -481.50520196 </i>
    <i name="e_0_energy">   -481.49893292 </i>
   </energy>
  </scstep>
  <scstep>
   <time name="dav">    5.37    5.37</time>
   <time name="total">    5.56    5.56</time>
   <energy>
    <i name="e_fr_energy">   -481.49580493 </i>
    <i name="e_wo_entrp">   -481.50520865 </i>
    <i name="e_0_energy">   -481.49893950 </i>
   </energy>
  </scstep>
  <scstep>
   <time name="dav">    5.42    5.42</time>
   <time name="total">    5.58    5.58</time>
   <energy>
    <i name="e_fr_energy">   -481.49580668 </i>
    <i name="e_wo_entrp">   -481.50521025 </i>
    <i name="e_0_energy">   -481.49894120 </i>
   </energy>
  </scstep>
  <scstep>
   <time name="dav">    5.51    5.51</time>
   <time name="total">    5.67    5.67</time>
   <energy>
    <i name="e_fr_energy">   -481.49580653 </i>
    <i name="e_wo_entrp">   -481.50521015 </i>
    <i name="e_0_energy">   -481.49894107 </i>
   </energy>
  </scstep>
  <scstep>
   <time name="dav">    5.06    5.06</time>
   <time name="total">    5.22    5.22</time>
   <energy>
    <i name="e_fr_energy">   -481.49580670 </i>
    <i name="e_wo_entrp">   -481.50521028 </i>
    <i name="e_0_energy">   -481.49894122 </i>
   </energy>
  </scstep>
  <scstep>
   <time name="dav">    3.39    3.39</time>
   <time name="total">    3.41    3.41</time>
   <energy>
    <i name="alphaZ">    354.85177120 </i>
    <i name="ewald">  -9082.48266309 </i>
    <i name="hartreedc">  -1023.89678542 </i>
    <i name="XCdc">    179.29387871 </i>
    <i name="pawpsdc">  33029.69368596 </i>
    <i name="pawaedc"> -32490.62607972 </i>
    <i name="eentropy">      0.00940357 </i>
    <i name="bandstr">    545.48593889 </i>
    <i name="atom">   8006.17504320 </i>
    <i name="e_fr_energy">   -481.49580669 </i>
    <i name="e_wo_entrp">   -481.50521026 </i>
    <i name="e_0_energy">   -481.49894121 </i>
   </energy>
  </scstep>
  <structure>
   <crystal>
    <varray name="basis" >
     <v>       8.74331558       0.00000000       0.00000000 </v>
     <v>       0.00000000       8.74331558       0.00000000 </v>
     <v>       0.00000000       0.00000000       8.74331558 </v>
    </varray>
    <i name="volume">    668.38771987 </i>
    <varray name="rec_basis" >
     <v>       0.11437309       0.00000000       0.00000000 </v>
     <v>       0.00000000       0.11437309       0.00000000 </v>
     <v>       0.00000000       0.00000000       0.11437309 </v>
    </varray>
   </crystal>
   <varray name="positions" >
    <v>       0.12493777       0.12520480       0.12444082 </v>
    <v>       0.12418297       0.37439746       0.37347733 </v>
    <v>       0.37724886       0.12706944       0.37580706 </v>
    <v>       0.37313101       0.37592442       0.12467808 </v>
    <v>       0.12594263       0.12683626       0.62855510 </v>
    <v>       0.12566261       0.37478478       0.87441826 </v>
    <v>       0.37324261       0.12725955       0.87763139 </v>
    <v>       0.37584502       0.37587337       0.62522455 </v>
    <v>       0.12324576       0.62666747       0.12356094 </v>
    <v>       0.12763183       0.87752480       0.37553388 </v>
    <v>       0.37715261       0.62388188       0.37474487 </v>
    <v>       0.37579837       0.87712390       0.12620510 </v>
    <v>       0.12684951       0.62496733       0.62538353 </v>
    <v>       0.12783600       0.87468127       0.87398792 </v>
    <v>       0.37865320       0.62509392       0.87669852 </v>
    <v>       0.37370910       0.87439138       0.62188773 </v>
    <v>       0.62337932       0.12311022       0.12427631 </v>
    <v>       0.62567099       0.37721650       0.37099137 </v>
    <v>       0.87264073       0.12470663       0.37270153 </v>
    <v>       0.87788535       0.37480319       0.12478631 </v>
    <v>       0.62366516       0.12704312       0.62615919 </v>
    <v>       0.62269043       0.37145916       0.87674994 </v>
    <v>       0.87429323       0.12700459       0.87442485 </v>
    <v>       0.86980151       0.37263541       0.62488984 </v>
    <v>       0.62467894       0.62557132       0.12353676 </v>
    <v>       0.62825394       0.87558165       0.37669298 </v>
    <v>       0.87397524       0.62459011       0.37546767 </v>
    <v>       0.87539356       0.87518295       0.12344015 </v>
    <v>       0.62361352       0.62474745       0.62621813 </v>
    <v>       0.62412886       0.87886860       0.87722320 </v>
    <v>       0.87506143       0.62336270       0.87502797 </v>
    <v>       0.87728170       0.87663569       0.62236914 </v>
    <v>       0.00007538       0.99985500       0.00224921 </v>
    <v>       0.99978197       0.25150982       0.24882855 </v>
    <v>       0.24864926       0.99922704       0.25062719 </v>
    <v>       0.24789225       0.24897386       0.99897651 </v>
    <v>       0.00013767       0.99781804       0.49806476 </v>
    <v>       0.00342433       0.24905461       0.74889260 </v>
    <v>       0.25065282       0.00041612       0.75506164 </v>
    <v>       0.25345223       0.24966234       0.50079319 </v>
    <v>       0.00036604       0.49909777       0.00344907 </v>
    <v>       0.00168448       0.75234757       0.25198562 </v>
    <v>       0.24921285       0.49941547       0.25316279 </v>
    <v>       0.24800233       0.74788901       0.00054396 </v>
    <v>       0.00047702       0.49810180       0.50033865 </v>
    <v>       0.99929677       0.75029216       0.74840926 </v>
    <v>       0.24747471       0.49977753       0.74609025 </v>
    <v>       0.24822107       0.75035327       0.50159760 </v>
    <v>       0.50328377       0.00128631       0.00411343 </v>
    <v>       0.50111546       0.25148127       0.24783774 </v>
    <v>       0.75052709       0.99934230       0.25218492 </v>
    <v>       0.75096906       0.24660010       0.99786867 </v>
    <v>       0.50171204       0.99842597       0.49773398 </v>
    <v>       0.49898493       0.25225426       0.75094922 </v>
    <v>       0.74814708       0.99969843       0.74979522 </v>
    <v>       0.74814107       0.24975361       0.49652940 </v>
    <v>       0.50053869       0.50202577       0.99759500 </v>
    <v>       0.49917136       0.74709280       0.25138327 </v>
    <v>       0.74901055       0.50347035       0.25076540 </v>
    <v>       0.75234284       0.75370739       0.99703815 </v>
    <v>       0.49876189       0.49936558       0.50127659 </v>
    <v>       0.49839323       0.75206350       0.75027562 </v>
    <v>       0.75013582       0.49983359       0.75165308 </v>
    <v>       0.75163015       0.75028370       0.50043480 </v>
   </varray>
  </structure>
  <varray name="forces" >
   <v>      -0.14752199      -0.10106792       0.31777346 </v>
   <v>       0.20773121      -0.10923929       0.63326639 </v>
   <v>      -0.16821752      -0.39562373      -0.33921294 </v>
   <v>       0.08455066       0.02735409      -0.09820044 </v>
   <v>       0.19522891      -0.63944747      -0.87268902 </v>
   <v>      -0.23036012       0.29845812      -0.02423557 </v>
   <v>       0.62074048      -0.46400818      -0.19002681 </v>
   <v>      -0.23015827      -0.01087943      -0.08544467 </v>
   <v>       0.26014571      -0.25328910       0.81372896 </v>
   <v>      -0.47122066      -0.56134421       0.05061709 </v>
   <v>      -0.77030475       0.13922892       0.46263979 </v>
   <v>      -0.23939737      -0.61148828       0.06570606 </v>
   <v>      -0.71744247       0.02375799      -0.36513985 </v>
   <v>      -0.77482398      -0.19486528       0.36234909 </v>
   <v>      -1.04301098       0.13738639      -0.66635581 </v>
   <v>       0.14147478       0.36124898       0.65659972 </v>
   <v>       0.85868466       0.47729623       0.57786031 </v>
   <v>      -0.24250980      -0.19496031       0.57525671 </v>
   <v>       0.67145513       0.08045262       0.31074673 </v>
   <v>      -0.88829777       0.05438720       0.08633667 </v>
   <v>      -0.04718355      -0.36652924      -0.38839389 </v>
   <v>       0.53160082       0.68395701      -0.11241722 </v>
   <v>       0.51794564      -0.77240501      -0.14324683 </v>
   <v>       1.01377415       0.27683938      -0.08353724 </v>
   <v>       0.32154900       0.31247927      -0.04482811 </v>
   <v>      -0.41259585      -0.49249998      -0.31571998 </v>
   <v>       0.57142290       0.32963201       0.08362135 </v>
   <v>       0.08641408       0.07602665       0.56447235 </v>
   <v>       0.30310249       0.23971054       0.00257028 </v>
   <v>       0.14631443      -0.47716819      -0.57079559 </v>
   <v>       0.18632105       0.38263329      -0.04032414 </v>
   <v>      -0.45151513      -0.35890873       0.53512292 </v>
   <v>       0.05033221       0.17104343      -0.68248233 </v>
   <v>      -0.01802985      -0.44663337       0.08465882 </v>
   <v>       0.76972797       0.70409562      -0.21806957 </v>
   <v>       0.37822598       0.47130719       0.37488506 </v>
   <v>       0.18574254       1.14195274       0.37613333 </v>
   <v>      -1.03483477       0.39383620       0.23835159 </v>
   <v>       0.25807751       0.10831652      -0.89461313 </v>
   <v>      -0.50549516      -0.04795274      -0.04654579 </v>
   <v>       0.01976937       0.08705041      -0.77690719 </v>
   <v>      -0.39966356      -0.36294235      -0.38724842 </v>
   <v>       0.18653088       0.15972260      -0.82215350 </v>
   <v>       0.79860383       0.43853502      -0.06996472 </v>
   <v>      -0.49577455      -0.01744164       0.07959629 </v>
   <v>       0.24967749      -0.03334398       0.35827510 </v>
   <v>       0.84994278       0.04102150       1.11121587 </v>
   <v>       0.64006803      -0.14538346      -0.42421266 </v>
   <v>      -1.09279861      -0.05313879      -0.60933844 </v>
   <v>      -0.34231146       0.02142767      -0.02041067 </v>
   <v>      -0.20927477       0.00837509      -0.74363643 </v>
   <v>      -0.21817855       0.61006335       0.56940466 </v>
   <v>      -0.25373256       0.47141074       0.51734977 </v>
   <v>      -0.08534193      -0.53265839       0.05920625 </v>
   <v>       0.36306742       0.53758821      -0.11269131 </v>
   <v>      -0.08250726       0.05825778       0.40909716 </v>
   <v>      -0.06157840      -0.65538087       0.66765316 </v>
   <v>       0.37871222       0.70339026      -0.36348665 </v>
   <v>       0.30246512      -0.44220501      -0.64792352 </v>
   <v>      -0.48403294      -0.68465837       0.44769364 </v>
   <v>       0.52347461       0.11980109      -0.27543364 </v>
   <v>       0.19943382      -0.11463432      -0.00294768 </v>
   <v>      -0.43980061      -0.34781856      -0.14331733 </v>
   <v>      -0.31439273      -0.26012793       0.18976256 </v>
  </varray>
  <varray name="stress" >
   <v>       2.19635961       2.08573541      -2.03700959 </v>
   <v>       2.08573541       2.65792867      -0.03688296 </v>
   <v>      -2.03700959      -0.03688296       2.24159818 </v>
  </varray>
  <energy>
   <i name="e_fr_energy">   -481.49580669 </i>
   <i name="e_wo_entrp">   -481.50521026 </i>
   <i name="e_0_energy">   -481.49894121 </i>
  </energy>
  <time name="totalsc">  104.61  104.65</time>
  <eigenvalues>
   <array>
    <dimension dim="1">band</dimension>
    <dimension dim="2">kpoint</dimension>
    <dimension dim="3">spin</dimension>
    <field>eigene</field>
    <field>occ</field>
    <set>
     <set comment="spin 1">
      <set comment="kpoint 1">
       <r>   -7.3382    1.0000 </r>
       <r>   -5.8214    1.0000 </r>
       <r>   -5.8073    1.0000 </r>
       <r>   -5.7611    1.0000 </r>
       <r>   -5.7433    1.0000 </r>
       <r>   -5.7052    1.0000 </r>
       <r>   -5.6842    1.0000 </r>
       <r>   -4.4515    1.0000 </r>
       <r>   -4.4393    1.0000 </r>
       <r>   -4.4072    1.0000 </r>
       <r>   -4.3883    1.0000 </r>
       <r>   -4.3444    1.0000 </r>
       <r>   -4.3404    1.0000 </r>
       <r>   -4.3306    1.0000 </r>
       <r>   -4.3118    1.0000 </r>
       <r>   -4.2909    1.0000 </r>
       <r>   -4.2864    1.0000 </r>
       <r>   -4.2575    1.0000 </r>
       <r>   -4.2229    1.0000 </r>
       <r>   -3.8502    1.0000 </r>
       <r>   -3.7930    1.0000 </r>
       <r>   -3.7800    1.0000 </r>
       <r>   -3.7618    1.0000 </r>
       <r>   -2.4155    1.0000 </r>
       <r>   -2.3592    1.0000 </r>
       <r>   -2.3486    1.0000 </r>
       <r>   -2.1906    1.0000 </r>
       <r>   -2.1639    1.0000 </r>
       <r>   -2.1458    1.0000 </r>
       <r>   -2.1099    1.0000 </r>
       <r>   -2.0982    1.0000 </r>
       <r>   -2.0525    1.0000 </r>
       <r>   -0.5159    1.0000 </r>
       <r>   -0.5048    1.0000 </r>
       <r>   -0.4894    1.0000 </r>
       <r>   -0.4369    1.0000 </r>
       <r>    0.2285    1.0000 </r>
       <r>    0.2347    1.0000 </r>
       <r>    0.2380    1.0000 </r>
       <r>    0.9643    1.0000 </r>
       <r>    0.9713    1.0000 </r>
       <r>    0.9833    1.0000 </r>
       <r>    0.9941    1.0000 </r>
       <r>    1.0043    1.0000 </r>
       <r>    1.0144    1.0000 </r>
       <r>    1.9980    1.0000 </r>
       <r>    2.0131    1.0000 </r>
       <r>    2.0207    1.0000 </r>
       <r>    2.0413    1.0000 </r>
       <r>    2.0622    1.0000 </r>
       <r>    2.0651    1.0000 </r>
       <r>    2.0715    1.0000 </r>
       <r>    2.0983    1.0000 </r>
       <r>    2.1160    1.0000 </r>
       <r>    2.1287    1.0000 </r>
       <r>    2.1487    1.0000 </r>
       <r>    2.1577    1.0000 </r>
       <r>    2.9937    1.0000 </r>
       <r>    3.0233    1.0000 </r>
       <r>    3.0319    1.0000 </r>
       <r>    3.0623    1.0000 </r>
       <r>    3.0921    1.0000 </r>
       <r>    3.0936    1.0000 </r>
       <r>    3.3172    1.0000 </r>
       <r>    3.3254    1.0000 </r>
       <r>    3.3332    1.0000 </r>
       <r>    3.3491    1.0000 </r>
       <r>    3.3675    1.0000 </r>
       <r>    3.3776    1.0000 </r>
       <r>    3.6362    1.0000 </r>
       <r>    3.6384    1.0000 </r>
       <r>    3.6514    1.0000 </r>
       <r>    3.6675    1.0000 </r>
       <r>    3.6713    1.0000 </r>
       <r>    3.6851    1.0000 </r>
       <r>    3.7005    1.0000 </r>
       <r>    3.7048    1.0000 </r>
       <r>    3.7158    1.0000 </r>
       <r>    3.7288    1.0000 </r>
       <r>    3.7490    1.0000 </r>
       <r>    3.7607    1.0000 </r>
       <r>    4.6138    1.0000 </r>
       <r>    4.6239    1.0000 </r>
       <r>    4.6326    1.0000 </r>
       <r>    4.6569    1.0000 </r>
       <r>    4.6766    1.0000 </r>
       <r>    4.7038    1.0000 </r>
       <r>    4.8157    1.0000 </r>
       <r>    4.8253    1.0000 </r>
       <r>    4.8311    1.0000 </r>
       <r>    4.8431    1.0000 </r>
       <r>    4.8536    1.0000 </r>
       <r>    4.8549    1.0000 </r>
       <r>    6.0142    1.0000 </r>
       <r>    6.0167    1.0000 </r>
       <r>    6.0206    1.0000 </r>
       <r>    6.0498    1.0000 </r>
       <r>    6.0582    1.0000 </r>
       <r>    6.0619    1.0000 </r>
       <r>    6.0777    1.0000 </r>
       <r>    6.0821    1.0000 </r>
       <r>    6.1070    1.0000 </r>
       <r>    6.1218    1.0000 </r>
       <r>    6.1443    1.0000 </r>
       <r>    6.1563    1.0000 </r>
       <r>    6.7325    1.0000 </r>
       <r>    6.7432    1.0000 </r>
       <r>    6.7532    1.0000 </r>
       <r>    6.7712    1.0000 </r>
       <r>    6.7858    1.0000 </r>
       <r>    6.7935    1.0000 </r>
       <r>    6.8206    1.0000 </r>
       <r>    6.8357    1.0000 </r>
       <r>    6.8377    1.0000 </r>
       <r>    6.8405    1.0000 </r>
       <r>    6.8638    1.0000 </r>
       <r>    6.9216    1.0000 </r>
       <r>    6.9368    1.0000 </r>
       <r>    6.9562    1.0000 </r>
       <r>    6.9631    1.0000 </r>
       <r>    6.9798    1.0000 </r>
       <r>    6.9837    1.0000 </r>
       <r>    7.0170    1.0000 </r>
       <r>    7.0232    1.0000 </r>
       <r>    7.0423    1.0000 </r>
       <r>    7.9982    0.9735 </r>
       <r>    8.0213    0.9314 </r>
       <r>    8.0411    0.8847 </r>
       <r>    9.3265   -0.0000 </r>
       <r>    9.3484   -0.0000 </r>
       <r>    9.4179   -0.0000 </r>
       <r>   11.9599   -0.0000 </r>
       <r>   11.9849   -0.0000 </r>
       <r>   12.0150   -0.0000 </r>
       <r>   12.0268   -0.0000 </r>
       <r>   12.0393   -0.0000 </r>
       <r>   12.0686   -0.0000 </r>
       <r>   12.2813   -0.0000 </r>
       <r>   12.2837   -0.0000 </r>
       <r>   12.2992   -0.0000 </r>
       <r>   13.1086   -0.0000 </r>
       <r>   13.1350   -0.0000 </r>
       <r>   13.1517   -0.0000 </r>
       <r>   13.1814   -0.0000 </r>
       <r>   13.1916   -0.0000 </r>
       <r>   13.2109   -0.0000 </r>
       <r>   13.3183   -0.0000 </r>
       <r>   13.3270   -0.0000 </r>
       <r>   13.3377   -0.0000 </r>
       <r>   13.3458   -0.0000 </r>
       <r>   13.4183   -0.0000 </r>
       <r>   13.4362   -0.0000 </r>
       <r>   13.4670   -0.0000 </r>
       <r>   13.4815   -0.0000 </r>
       <r>   13.4887   -0.0000 </r>
       <r>   13.4986   -0.0000 </r>
       <r>   13.5121   -0.0000 </r>
       <r>   13.5384   -0.0000 </r>
       <r>   13.5428   -0.0000 </r>
       <r>   13.5618   -0.0000 </r>
       <r>   13.5737   -0.0000 </r>
       <r>   13.5854   -0.0000 </r>
       <r>   14.0966    0.0000 </r>
       <r>   14.2205    0.0000 </r>
       <r>   14.2876    0.0000 </r>
       <r>   14.2948    0.0000 </r>
       <r>   14.3116    0.0000 </r>
       <r>   14.3361    0.0000 </r>
      </set>
      <set comment="kpoint 2">
       <r>   -7.1595    1.0000 </r>
       <r>   -6.6244    1.0000 </r>
       <r>   -5.6290    1.0000 </r>
       <r>   -5.6183    1.0000 </r>
       <r>   -5.5820    1.0000 </r>
       <r>   -5.5353    1.0000 </r>
       <r>   -5.1400    1.0000 </r>
       <r>   -5.1303    1.0000 </r>
       <r>   -5.0917    1.0000 </r>
       <r>   -5.0471    1.0000 </r>
       <r>   -4.5873    1.0000 </r>
       <r>   -4.2787    1.0000 </r>
       <r>   -4.2304    1.0000 </r>
       <r>   -4.2153    1.0000 </r>
       <r>   -4.2051    1.0000 </r>
       <r>   -4.0183    1.0000 </r>
       <r>   -3.9538    1.0000 </r>
       <r>   -3.9460    1.0000 </r>
       <r>   -3.9318    1.0000 </r>
       <r>   -3.4309    1.0000 </r>
       <r>   -3.4162    1.0000 </r>
       <r>   -3.3880    1.0000 </r>
       <r>   -3.3416    1.0000 </r>
       <r>   -3.2242    1.0000 </r>
       <r>   -2.5465    1.0000 </r>
       <r>   -2.5364    1.0000 </r>
       <r>   -2.5152    1.0000 </r>
       <r>   -2.4709    1.0000 </r>
       <r>   -2.3360    1.0000 </r>
       <r>   -2.2833    1.0000 </r>
       <r>   -2.1987    1.0000 </r>
       <r>   -2.1508    1.0000 </r>
       <r>   -0.0499    1.0000 </r>
       <r>   -0.0415    1.0000 </r>
       <r>   -0.0268    1.0000 </r>
       <r>    0.0239    1.0000 </r>
       <r>    0.3735    1.0000 </r>
       <r>    0.3756    1.0000 </r>
       <r>    0.7228    1.0000 </r>
       <r>    0.7283    1.0000 </r>
       <r>    1.0026    1.0000 </r>
       <r>    1.0219    1.0000 </r>
       <r>    1.0510    1.0000 </r>
       <r>    1.0792    1.0000 </r>
       <r>    1.0962    1.0000 </r>
       <r>    1.1077    1.0000 </r>
       <r>    1.1193    1.0000 </r>
       <r>    1.1534    1.0000 </r>
       <r>    1.2397    1.0000 </r>
       <r>    1.3806    1.0000 </r>
       <r>    1.4019    1.0000 </r>
       <r>    1.4211    1.0000 </r>
       <r>    1.4499    1.0000 </r>
       <r>    2.6740    1.0000 </r>
       <r>    2.6972    1.0000 </r>
       <r>    2.7224    1.0000 </r>
       <r>    2.7337    1.0000 </r>
       <r>    2.9136    1.0000 </r>
       <r>    2.9538    1.0000 </r>
       <r>    2.9568    1.0000 </r>
       <r>    2.9772    1.0000 </r>
       <r>    2.9933    1.0000 </r>
       <r>    3.0059    1.0000 </r>
       <r>    3.0168    1.0000 </r>
       <r>    3.0261    1.0000 </r>
       <r>    3.0728    1.0000 </r>
       <r>    3.5252    1.0000 </r>
       <r>    3.5271    1.0000 </r>
       <r>    3.6444    1.0000 </r>
       <r>    3.6532    1.0000 </r>
       <r>    4.0089    1.0000 </r>
       <r>    4.0146    1.0000 </r>
       <r>    4.0321    1.0000 </r>
       <r>    4.0637    1.0000 </r>
       <r>    4.3483    1.0000 </r>
       <r>    4.3580    1.0000 </r>
       <r>    4.3781    1.0000 </r>
       <r>    4.3917    1.0000 </r>
       <r>    4.4195    1.0000 </r>
       <r>    4.4338    1.0000 </r>
       <r>    4.4566    1.0000 </r>
       <r>    4.4848    1.0000 </r>
       <r>    4.6312    1.0000 </r>
       <r>    4.6368    1.0000 </r>
       <r>    4.6644    1.0000 </r>
       <r>    4.6843    1.0000 </r>
       <r>    4.7943    1.0000 </r>
       <r>    4.8064    1.0000 </r>
       <r>    4.8276    1.0000 </r>
       <r>    4.8573    1.0000 </r>
       <r>    4.9782    1.0000 </r>
       <r>    4.9839    1.0000 </r>
       <r>    5.3997    1.0000 </r>
       <r>    5.4098    1.0000 </r>
       <r>    5.5896    1.0000 </r>
       <r>    5.6018    1.0000 </r>
       <r>    5.6332    1.0000 </r>
       <r>    5.6439    1.0000 </r>
       <r>    5.8581    1.0000 </r>
       <r>    5.8855    1.0000 </r>
       <r>    5.8981    1.0000 </r>
       <r>    5.9309    1.0000 </r>
       <r>    6.1858    1.0000 </r>
       <r>    6.2523    1.0000 </r>
       <r>    6.2683    1.0000 </r>
       <r>    6.2815    1.0000 </r>
       <r>    6.3204    1.0000 </r>
       <r>    6.4554    1.0000 </r>
       <r>    6.4736    1.0000 </r>
       <r>    6.4899    1.0000 </r>
       <r>    6.5201    1.0000 </r>
       <r>    6.7441    1.0000 </r>
       <r>    6.8055    1.0000 </r>
       <r>    6.8292    1.0000 </r>
       <r>    6.8454    1.0000 </r>
       <r>    6.8651    1.0000 </r>
       <r>    6.8820    1.0000 </r>
       <r>    6.8953    1.0000 </r>
       <r>    6.9156    1.0000 </r>
       <r>    6.9246    1.0000 </r>
       <r>    6.9481    1.0000 </r>
       <r>    6.9625    1.0000 </r>
       <r>    6.9913    1.0000 </r>
       <r>    7.0007    1.0000 </r>
       <r>    7.0181    1.0000 </r>
       <r>    7.4699    1.0000 </r>
       <r>    7.6801    1.0024 </r>
       <r>    7.6838    1.0026 </r>
       <r>    9.6852   -0.0000 </r>
       <r>   10.1754   -0.0000 </r>
       <r>   10.2376   -0.0000 </r>
       <r>   10.6287   -0.0000 </r>
       <r>   11.9494   -0.0000 </r>
       <r>   11.9977   -0.0000 </r>
       <r>   12.4921   -0.0000 </r>
       <r>   12.6231   -0.0000 </r>
       <r>   12.6328   -0.0000 </r>
       <r>   12.6584   -0.0000 </r>
       <r>   12.7009   -0.0000 </r>
       <r>   12.9389   -0.0000 </r>
       <r>   12.9563   -0.0000 </r>
       <r>   12.9705   -0.0000 </r>
       <r>   13.0020   -0.0000 </r>
       <r>   13.0428   -0.0000 </r>
       <r>   13.0737   -0.0000 </r>
       <r>   13.0860   -0.0000 </r>
       <r>   13.1157   -0.0000 </r>
       <r>   13.1365   -0.0000 </r>
       <r>   13.1615   -0.0000 </r>
       <r>   13.1770   -0.0000 </r>
       <r>   13.4909   -0.0000 </r>
       <r>   13.6166    0.0000 </r>
       <r>   13.6311    0.0000 </r>
       <r>   13.6481    0.0000 </r>
       <r>   13.6528    0.0000 </r>
       <r>   13.6846    0.0000 </r>
       <r>   13.6937    0.0000 </r>
       <r>   13.7015    0.0000 </r>
       <r>   13.7315    0.0000 </r>
       <r>   13.9336    0.0000 </r>
       <r>   13.9681    0.0000 </r>
       <r>   13.9929    0.0000 </r>
       <r>   14.0186    0.0000 </r>
       <r>   14.4758    0.0000 </r>
       <r>   14.8171    0.0000 </r>
       <r>   14.8570    0.0000 </r>
       <r>   14.8815    0.0000 </r>
       <r>   14.9165    0.0000 </r>
      </set>
      <set comment="kpoint 3">
       <r>   -7.1594    1.0000 </r>
       <r>   -6.6250    1.0000 </r>
       <r>   -5.6302    1.0000 </r>
       <r>   -5.6036    1.0000 </r>
       <r>   -5.5938    1.0000 </r>
       <r>   -5.5353    1.0000 </r>
       <r>   -5.1408    1.0000 </r>
       <r>   -5.1192    1.0000 </r>
       <r>   -5.1070    1.0000 </r>
       <r>   -5.0428    1.0000 </r>
       <r>   -4.5875    1.0000 </r>
       <r>   -4.2994    1.0000 </r>
       <r>   -4.2346    1.0000 </r>
       <r>   -4.2125    1.0000 </r>
       <r>   -4.1835    1.0000 </r>
       <r>   -4.0147    1.0000 </r>
       <r>   -3.9648    1.0000 </r>
       <r>   -3.9474    1.0000 </r>
       <r>   -3.9240    1.0000 </r>
       <r>   -3.4319    1.0000 </r>
       <r>   -3.4061    1.0000 </r>
       <r>   -3.3929    1.0000 </r>
       <r>   -3.3344    1.0000 </r>
       <r>   -3.2322    1.0000 </r>
       <r>   -2.5607    1.0000 </r>
       <r>   -2.5335    1.0000 </r>
       <r>   -2.5169    1.0000 </r>
       <r>   -2.4645    1.0000 </r>
       <r>   -2.3208    1.0000 </r>
       <r>   -2.2887    1.0000 </r>
       <r>   -2.1833    1.0000 </r>
       <r>   -2.1721    1.0000 </r>
       <r>   -0.0630    1.0000 </r>
       <r>   -0.0409    1.0000 </r>
       <r>   -0.0211    1.0000 </r>
       <r>    0.0305    1.0000 </r>
       <r>    0.3697    1.0000 </r>
       <r>    0.3770    1.0000 </r>
       <r>    0.7230    1.0000 </r>
       <r>    0.7332    1.0000 </r>
       <r>    1.0084    1.0000 </r>
       <r>    1.0233    1.0000 </r>
       <r>    1.0416    1.0000 </r>
       <r>    1.0624    1.0000 </r>
       <r>    1.0811    1.0000 </r>
       <r>    1.1206    1.0000 </r>
       <r>    1.1370    1.0000 </r>
       <r>    1.1581    1.0000 </r>
       <r>    1.2461    1.0000 </r>
       <r>    1.3785    1.0000 </r>
       <r>    1.3917    1.0000 </r>
       <r>    1.4331    1.0000 </r>
       <r>    1.4417    1.0000 </r>
       <r>    2.6849    1.0000 </r>
       <r>    2.6997    1.0000 </r>
       <r>    2.7175    1.0000 </r>
       <r>    2.7285    1.0000 </r>
       <r>    2.9114    1.0000 </r>
       <r>    2.9322    1.0000 </r>
       <r>    2.9665    1.0000 </r>
       <r>    2.9694    1.0000 </r>
       <r>    2.9892    1.0000 </r>
       <r>    2.9984    1.0000 </r>
       <r>    3.0300    1.0000 </r>
       <r>    3.0498    1.0000 </r>
       <r>    3.0646    1.0000 </r>
       <r>    3.5246    1.0000 </r>
       <r>    3.5262    1.0000 </r>
       <r>    3.6489    1.0000 </r>
       <r>    3.6519    1.0000 </r>
       <r>    3.9962    1.0000 </r>
       <r>    4.0117    1.0000 </r>
       <r>    4.0459    1.0000 </r>
       <r>    4.0670    1.0000 </r>
       <r>    4.3411    1.0000 </r>
       <r>    4.3592    1.0000 </r>
       <r>    4.3855    1.0000 </r>
       <r>    4.3977    1.0000 </r>
       <r>    4.4214    1.0000 </r>
       <r>    4.4320    1.0000 </r>
       <r>    4.4507    1.0000 </r>
       <r>    4.4775    1.0000 </r>
       <r>    4.6253    1.0000 </r>
       <r>    4.6416    1.0000 </r>
       <r>    4.6739    1.0000 </r>
       <r>    4.6862    1.0000 </r>
       <r>    4.7645    1.0000 </r>
       <r>    4.8118    1.0000 </r>
       <r>    4.8274    1.0000 </r>
       <r>    4.8694    1.0000 </r>
       <r>    4.9779    1.0000 </r>
       <r>    4.9924    1.0000 </r>
       <r>    5.3937    1.0000 </r>
       <r>    5.4150    1.0000 </r>
       <r>    5.5804    1.0000 </r>
       <r>    5.5984    1.0000 </r>
       <r>    5.6329    1.0000 </r>
       <r>    5.6574    1.0000 </r>
       <r>    5.8634    1.0000 </r>
       <r>    5.8736    1.0000 </r>
       <r>    5.9067    1.0000 </r>
       <r>    5.9246    1.0000 </r>
       <r>    6.1896    1.0000 </r>
       <r>    6.2318    1.0000 </r>
       <r>    6.2693    1.0000 </r>
       <r>    6.2863    1.0000 </r>
       <r>    6.3262    1.0000 </r>
       <r>    6.4463    1.0000 </r>
       <r>    6.4640    1.0000 </r>
       <r>    6.4997    1.0000 </r>
       <r>    6.5276    1.0000 </r>
       <r>    6.7511    1.0000 </r>
       <r>    6.8196    1.0000 </r>
       <r>    6.8289    1.0000 </r>
       <r>    6.8501    1.0000 </r>
       <r>    6.8697    1.0000 </r>
       <r>    6.8759    1.0000 </r>
       <r>    6.8991    1.0000 </r>
       <r>    6.9073    1.0000 </r>
       <r>    6.9222    1.0000 </r>
       <r>    6.9379    1.0000 </r>
       <r>    6.9565    1.0000 </r>
       <r>    6.9876    1.0000 </r>
       <r>    7.0006    1.0000 </r>
       <r>    7.0301    1.0000 </r>
       <r>    7.4743    1.0000 </r>
       <r>    7.6640    1.0017 </r>
       <r>    7.6964    1.0033 </r>
       <r>    9.6810   -0.0000 </r>
       <r>   10.1897   -0.0000 </r>
       <r>   10.2263   -0.0000 </r>
       <r>   10.6262   -0.0000 </r>
       <r>   11.9584   -0.0000 </r>
       <r>   11.9908   -0.0000 </r>
       <r>   12.4905   -0.0000 </r>
       <r>   12.6118   -0.0000 </r>
       <r>   12.6483   -0.0000 </r>
       <r>   12.6730   -0.0000 </r>
       <r>   12.6846   -0.0000 </r>
       <r>   12.9420   -0.0000 </r>
       <r>   12.9656   -0.0000 </r>
       <r>   12.9885   -0.0000 </r>
       <r>   13.0017   -0.0000 </r>
       <r>   13.0470   -0.0000 </r>
       <r>   13.0676   -0.0000 </r>
       <r>   13.0834   -0.0000 </r>
       <r>   13.1029   -0.0000 </r>
       <r>   13.1251   -0.0000 </r>
       <r>   13.1501   -0.0000 </r>
       <r>   13.1865   -0.0000 </r>
       <r>   13.4928   -0.0000 </r>
       <r>   13.6026   -0.0000 </r>
       <r>   13.6277    0.0000 </r>
       <r>   13.6476    0.0000 </r>
       <r>   13.6602    0.0000 </r>
       <r>   13.6812    0.0000 </r>
       <r>   13.6969    0.0000 </r>
       <r>   13.7079    0.0000 </r>
       <r>   13.7295    0.0000 </r>
       <r>   13.9217    0.0000 </r>
       <r>   13.9632    0.0000 </r>
       <r>   14.0107    0.0000 </r>
       <r>   14.0167    0.0000 </r>
       <r>   14.4742    0.0000 </r>
       <r>   14.8374    0.0000 </r>
       <r>   14.8505    0.0000 </r>
       <r>   14.8862    0.0000 </r>
       <r>   14.9281    0.0000 </r>
      </set>
      <set comment="kpoint 4">
       <r>   -7.1593    1.0000 </r>
       <r>   -6.6247    1.0000 </r>
       <r>   -5.6369    1.0000 </r>
       <r>   -5.6284    1.0000 </r>
       <r>   -5.5624    1.0000 </r>
       <r>   -5.5359    1.0000 </r>
       <r>   -5.1473    1.0000 </r>
       <r>   -5.1347    1.0000 </r>
       <r>   -5.0754    1.0000 </r>
       <r>   -5.0480    1.0000 </r>
       <r>   -4.5893    1.0000 </r>
       <r>   -4.2890    1.0000 </r>
       <r>   -4.2316    1.0000 </r>
       <r>   -4.2127    1.0000 </r>
       <r>   -4.2010    1.0000 </r>
       <r>   -4.0156    1.0000 </r>
       <r>   -3.9677    1.0000 </r>
       <r>   -3.9402    1.0000 </r>
       <r>   -3.9266    1.0000 </r>
       <r>   -3.4379    1.0000 </r>
       <r>   -3.4257    1.0000 </r>
       <r>   -3.3663    1.0000 </r>
       <r>   -3.3407    1.0000 </r>
       <r>   -3.2288    1.0000 </r>
       <r>   -2.5608    1.0000 </r>
       <r>   -2.5469    1.0000 </r>
       <r>   -2.4873    1.0000 </r>
       <r>   -2.4724    1.0000 </r>
       <r>   -2.3289    1.0000 </r>
       <r>   -2.2816    1.0000 </r>
       <r>   -2.1971    1.0000 </r>
       <r>   -2.1613    1.0000 </r>
       <r>   -0.0530    1.0000 </r>
       <r>   -0.0402    1.0000 </r>
       <r>   -0.0243    1.0000 </r>
       <r>    0.0242    1.0000 </r>
       <r>    0.3685    1.0000 </r>
       <r>    0.3783    1.0000 </r>
       <r>    0.7220    1.0000 </r>
       <r>    0.7303    1.0000 </r>
       <r>    1.0142    1.0000 </r>
       <r>    1.0229    1.0000 </r>
       <r>    1.0456    1.0000 </r>
       <r>    1.0542    1.0000 </r>
       <r>    1.0834    1.0000 </r>
       <r>    1.1146    1.0000 </r>
       <r>    1.1284    1.0000 </r>
       <r>    1.1607    1.0000 </r>
       <r>    1.2447    1.0000 </r>
       <r>    1.3772    1.0000 </r>
       <r>    1.3972    1.0000 </r>
       <r>    1.4286    1.0000 </r>
       <r>    1.4507    1.0000 </r>
       <r>    2.6823    1.0000 </r>
       <r>    2.6934    1.0000 </r>
       <r>    2.7254    1.0000 </r>
       <r>    2.7324    1.0000 </r>
       <r>    2.9112    1.0000 </r>
       <r>    2.9451    1.0000 </r>
       <r>    2.9623    1.0000 </r>
       <r>    2.9831    1.0000 </r>
       <r>    2.9958    1.0000 </r>
       <r>    2.9992    1.0000 </r>
       <r>    3.0260    1.0000 </r>
       <r>    3.0370    1.0000 </r>
       <r>    3.0560    1.0000 </r>
       <r>    3.5232    1.0000 </r>
       <r>    3.5260    1.0000 </r>
       <r>    3.6442    1.0000 </r>
       <r>    3.6518    1.0000 </r>
       <r>    4.0060    1.0000 </r>
       <r>    4.0168    1.0000 </r>
       <r>    4.0440    1.0000 </r>
       <r>    4.0595    1.0000 </r>
       <r>    4.3476    1.0000 </r>
       <r>    4.3602    1.0000 </r>
       <r>    4.3781    1.0000 </r>
       <r>    4.3851    1.0000 </r>
       <r>    4.4165    1.0000 </r>
       <r>    4.4339    1.0000 </r>
       <r>    4.4624    1.0000 </r>
       <r>    4.4776    1.0000 </r>
       <r>    4.6219    1.0000 </r>
       <r>    4.6372    1.0000 </r>
       <r>    4.6628    1.0000 </r>
       <r>    4.6875    1.0000 </r>
       <r>    4.7870    1.0000 </r>
       <r>    4.8027    1.0000 </r>
       <r>    4.8420    1.0000 </r>
       <r>    4.8583    1.0000 </r>
       <r>    4.9823    1.0000 </r>
       <r>    4.9882    1.0000 </r>
       <r>    5.3993    1.0000 </r>
       <r>    5.4125    1.0000 </r>
       <r>    5.5818    1.0000 </r>
       <r>    5.6051    1.0000 </r>
       <r>    5.6323    1.0000 </r>
       <r>    5.6418    1.0000 </r>
       <r>    5.8653    1.0000 </r>
       <r>    5.8797    1.0000 </r>
       <r>    5.9072    1.0000 </r>
       <r>    5.9225    1.0000 </r>
       <r>    6.1817    1.0000 </r>
       <r>    6.2438    1.0000 </r>
       <r>    6.2668    1.0000 </r>
       <r>    6.2964    1.0000 </r>
       <r>    6.3222    1.0000 </r>
       <r>    6.4420    1.0000 </r>
       <r>    6.4638    1.0000 </r>
       <r>    6.4949    1.0000 </r>
       <r>    6.5167    1.0000 </r>
       <r>    6.7772    1.0000 </r>
       <r>    6.8089    1.0000 </r>
       <r>    6.8272    1.0000 </r>
       <r>    6.8453    1.0000 </r>
       <r>    6.8548    1.0000 </r>
       <r>    6.8793    1.0000 </r>
       <r>    6.9001    1.0000 </r>
       <r>    6.9131    1.0000 </r>
       <r>    6.9256    1.0000 </r>
       <r>    6.9490    1.0000 </r>
       <r>    6.9653    1.0000 </r>
       <r>    6.9836    1.0000 </r>
       <r>    7.0095    1.0000 </r>
       <r>    7.0124    1.0000 </r>
       <r>    7.4706    1.0000 </r>
       <r>    7.6702    1.0019 </r>
       <r>    7.6901    1.0029 </r>
       <r>    9.6825   -0.0000 </r>
       <r>   10.1843   -0.0000 </r>
       <r>   10.2315   -0.0000 </r>
       <r>   10.6265   -0.0000 </r>
       <r>   11.9563   -0.0000 </r>
       <r>   11.9911   -0.0000 </r>
       <r>   12.4900   -0.0000 </r>
       <r>   12.6035   -0.0000 </r>
       <r>   12.6564   -0.0000 </r>
       <r>   12.6679   -0.0000 </r>
       <r>   12.6871   -0.0000 </r>
       <r>   12.9210   -0.0000 </r>
       <r>   12.9644   -0.0000 </r>
       <r>   12.9837   -0.0000 </r>
       <r>   13.0055   -0.0000 </r>
       <r>   13.0463   -0.0000 </r>
       <r>   13.0773   -0.0000 </r>
       <r>   13.0826   -0.0000 </r>
       <r>   13.1035   -0.0000 </r>
       <r>   13.1271   -0.0000 </r>
       <r>   13.1606   -0.0000 </r>
       <r>   13.1935   -0.0000 </r>
       <r>   13.4902   -0.0000 </r>
       <r>   13.6130    0.0000 </r>
       <r>   13.6230    0.0000 </r>
       <r>   13.6442    0.0000 </r>
       <r>   13.6656    0.0000 </r>
       <r>   13.6833    0.0000 </r>
       <r>   13.7011    0.0000 </r>
       <r>   13.7118    0.0000 </r>
       <r>   13.7218    0.0000 </r>
       <r>   13.9320    0.0000 </r>
       <r>   13.9694    0.0000 </r>
       <r>   13.9845    0.0000 </r>
       <r>   14.0219    0.0000 </r>
       <r>   14.4746    0.0000 </r>
       <r>   14.7976    0.0000 </r>
       <r>   14.8314    0.0000 </r>
       <r>   14.8816    0.0000 </r>
       <r>   14.9039    0.0000 </r>
      </set>
      <set comment="kpoint 5">
       <r>   -6.9824    1.0000 </r>
       <r>   -6.4598    1.0000 </r>
       <r>   -6.4421    1.0000 </r>
       <r>   -5.9345    1.0000 </r>
       <r>   -5.4459    1.0000 </r>
       <r>   -5.4129    1.0000 </r>
       <r>   -4.9879    1.0000 </r>
       <r>   -4.9692    1.0000 </r>
       <r>   -4.9486    1.0000 </r>
       <r>   -4.9320    1.0000 </r>
       <r>   -4.5635    1.0000 </r>
       <r>   -4.5233    1.0000 </r>
       <r>   -4.4320    1.0000 </r>
       <r>   -4.4202    1.0000 </r>
       <r>   -4.0343    1.0000 </r>
       <r>   -4.0053    1.0000 </r>
       <r>   -3.5411    1.0000 </r>
       <r>   -3.5159    1.0000 </r>
       <r>   -3.4132    1.0000 </r>
       <r>   -3.3872    1.0000 </r>
       <r>   -3.3680    1.0000 </r>
       <r>   -3.3494    1.0000 </r>
       <r>   -3.1446    1.0000 </r>
       <r>   -3.1030    1.0000 </r>
       <r>   -2.8500    1.0000 </r>
       <r>   -2.8443    1.0000 </r>
       <r>   -2.7494    1.0000 </r>
       <r>   -2.7310    1.0000 </r>
       <r>   -2.6959    1.0000 </r>
       <r>   -2.3365    1.0000 </r>
       <r>   -2.3154    1.0000 </r>
       <r>   -2.2551    1.0000 </r>
       <r>   -0.1766    1.0000 </r>
       <r>   -0.1475    1.0000 </r>
       <r>    0.4786    1.0000 </r>
       <r>    0.5209    1.0000 </r>
       <r>    0.5348    1.0000 </r>
       <r>    0.5601    1.0000 </r>
       <r>    0.5761    1.0000 </r>
       <r>    0.6494    1.0000 </r>
       <r>    0.6872    1.0000 </r>
       <r>    0.7788    1.0000 </r>
       <r>    0.8127    1.0000 </r>
       <r>    0.8358    1.0000 </r>
       <r>    0.8650    1.0000 </r>
       <r>    0.9784    1.0000 </r>
       <r>    1.1990    1.0000 </r>
       <r>    1.2084    1.0000 </r>
       <r>    1.2646    1.0000 </r>
       <r>    1.2799    1.0000 </r>
       <r>    2.0196    1.0000 </r>
       <r>    2.0335    1.0000 </r>
       <r>    2.0617    1.0000 </r>
       <r>    2.0766    1.0000 </r>
       <r>    2.0996    1.0000 </r>
       <r>    2.1160    1.0000 </r>
       <r>    2.4066    1.0000 </r>
       <r>    2.5727    1.0000 </r>
       <r>    2.5970    1.0000 </r>
       <r>    2.6807    1.0000 </r>
       <r>    2.7007    1.0000 </r>
       <r>    3.2052    1.0000 </r>
       <r>    3.2457    1.0000 </r>
       <r>    3.2862    1.0000 </r>
       <r>    3.3011    1.0000 </r>
       <r>    3.3204    1.0000 </r>
       <r>    3.5140    1.0000 </r>
       <r>    3.5286    1.0000 </r>
       <r>    3.9151    1.0000 </r>
       <r>    3.9229    1.0000 </r>
       <r>    4.0379    1.0000 </r>
       <r>    4.0413    1.0000 </r>
       <r>    4.0717    1.0000 </r>
       <r>    4.0932    1.0000 </r>
       <r>    4.1081    1.0000 </r>
       <r>    4.3004    1.0000 </r>
       <r>    4.3244    1.0000 </r>
       <r>    4.4798    1.0000 </r>
       <r>    4.4860    1.0000 </r>
       <r>    4.6599    1.0000 </r>
       <r>    4.6725    1.0000 </r>
       <r>    4.8764    1.0000 </r>
       <r>    4.8911    1.0000 </r>
       <r>    4.9107    1.0000 </r>
       <r>    4.9195    1.0000 </r>
       <r>    4.9440    1.0000 </r>
       <r>    4.9470    1.0000 </r>
       <r>    5.1017    1.0000 </r>
       <r>    5.2933    1.0000 </r>
       <r>    5.3084    1.0000 </r>
       <r>    5.3993    1.0000 </r>
       <r>    5.4229    1.0000 </r>
       <r>    5.4347    1.0000 </r>
       <r>    5.4632    1.0000 </r>
       <r>    5.5596    1.0000 </r>
       <r>    5.5688    1.0000 </r>
       <r>    5.5777    1.0000 </r>
       <r>    5.5903    1.0000 </r>
       <r>    5.6158    1.0000 </r>
       <r>    5.6436    1.0000 </r>
       <r>    5.6536    1.0000 </r>
       <r>    5.8489    1.0000 </r>
       <r>    5.9874    1.0000 </r>
       <r>    5.9991    1.0000 </r>
       <r>    6.0221    1.0000 </r>
       <r>    6.0419    1.0000 </r>
       <r>    6.1973    1.0000 </r>
       <r>    6.2305    1.0000 </r>
       <r>    6.2587    1.0000 </r>
       <r>    6.3050    1.0000 </r>
       <r>    6.4171    1.0000 </r>
       <r>    6.4243    1.0000 </r>
       <r>    6.4789    1.0000 </r>
       <r>    6.4926    1.0000 </r>
       <r>    6.5382    1.0000 </r>
       <r>    6.6510    1.0000 </r>
       <r>    6.6801    1.0000 </r>
       <r>    6.6856    1.0000 </r>
       <r>    6.7511    1.0000 </r>
       <r>    6.8516    1.0000 </r>
       <r>    6.8713    1.0000 </r>
       <r>    6.8954    1.0000 </r>
       <r>    6.9060    1.0000 </r>
       <r>    7.3074    1.0000 </r>
       <r>    7.4754    1.0000 </r>
       <r>    7.4918    1.0000 </r>
       <r>    7.6447    1.0011 </r>
       <r>    7.9775    1.0007 </r>
       <r>   10.4220   -0.0000 </r>
       <r>   10.4680   -0.0000 </r>
       <r>   10.5280   -0.0000 </r>
       <r>   11.3228   -0.0000 </r>
       <r>   11.3550   -0.0000 </r>
       <r>   11.6486   -0.0000 </r>
       <r>   11.6618   -0.0000 </r>
       <r>   11.8234   -0.0000 </r>
       <r>   12.1859   -0.0000 </r>
       <r>   12.2091   -0.0000 </r>
       <r>   12.8298   -0.0000 </r>
       <r>   12.8559   -0.0000 </r>
       <r>   12.8837   -0.0000 </r>
       <r>   12.8963   -0.0000 </r>
       <r>   13.0540   -0.0000 </r>
       <r>   13.0853   -0.0000 </r>
       <r>   13.1506   -0.0000 </r>
       <r>   13.1595   -0.0000 </r>
       <r>   13.1822   -0.0000 </r>
       <r>   13.2336   -0.0000 </r>
       <r>   13.2791   -0.0000 </r>
       <r>   13.2934   -0.0000 </r>
       <r>   13.5403   -0.0000 </r>
       <r>   13.5646   -0.0000 </r>
       <r>   13.5849   -0.0000 </r>
       <r>   13.6205    0.0000 </r>
       <r>   13.7315    0.0000 </r>
       <r>   13.7430    0.0000 </r>
       <r>   13.7558    0.0000 </r>
       <r>   13.7910    0.0000 </r>
       <r>   13.8929    0.0000 </r>
       <r>   13.9205    0.0000 </r>
       <r>   13.9889    0.0000 </r>
       <r>   14.0816    0.0000 </r>
       <r>   14.1076    0.0000 </r>
       <r>   14.6699    0.0000 </r>
       <r>   14.7432    0.0000 </r>
       <r>   14.7515    0.0000 </r>
       <r>   14.9569    0.0000 </r>
       <r>   15.1178    0.0000 </r>
      </set>
      <set comment="kpoint 6">
       <r>   -6.9822    1.0000 </r>
       <r>   -6.4631    1.0000 </r>
       <r>   -6.4386    1.0000 </r>
       <r>   -5.9362    1.0000 </r>
       <r>   -5.4559    1.0000 </r>
       <r>   -5.4000    1.0000 </r>
       <r>   -5.0033    1.0000 </r>
       <r>   -4.9684    1.0000 </r>
       <r>   -4.9374    1.0000 </r>
       <r>   -4.9236    1.0000 </r>
       <r>   -4.5712    1.0000 </r>
       <r>   -4.5158    1.0000 </r>
       <r>   -4.4415    1.0000 </r>
       <r>   -4.4190    1.0000 </r>
       <r>   -4.0389    1.0000 </r>
       <r>   -4.0002    1.0000 </r>
       <r>   -3.5442    1.0000 </r>
       <r>   -3.4965    1.0000 </r>
       <r>   -3.4387    1.0000 </r>
       <r>   -3.3843    1.0000 </r>
       <r>   -3.3648    1.0000 </r>
       <r>   -3.3454    1.0000 </r>
       <r>   -3.1472    1.0000 </r>
       <r>   -3.1039    1.0000 </r>
       <r>   -2.8654    1.0000 </r>
       <r>   -2.8306    1.0000 </r>
       <r>   -2.7450    1.0000 </r>
       <r>   -2.7408    1.0000 </r>
       <r>   -2.6823    1.0000 </r>
       <r>   -2.3294    1.0000 </r>
       <r>   -2.3169    1.0000 </r>
       <r>   -2.2613    1.0000 </r>
       <r>   -0.1938    1.0000 </r>
       <r>   -0.1458    1.0000 </r>
       <r>    0.4815    1.0000 </r>
       <r>    0.5283    1.0000 </r>
       <r>    0.5374    1.0000 </r>
       <r>    0.5710    1.0000 </r>
       <r>    0.5925    1.0000 </r>
       <r>    0.6337    1.0000 </r>
       <r>    0.6850    1.0000 </r>
       <r>    0.7835    1.0000 </r>
       <r>    0.7981    1.0000 </r>
       <r>    0.8249    1.0000 </r>
       <r>    0.8700    1.0000 </r>
       <r>    0.9848    1.0000 </r>
       <r>    1.2098    1.0000 </r>
       <r>    1.2289    1.0000 </r>
       <r>    1.2600    1.0000 </r>
       <r>    1.2740    1.0000 </r>
       <r>    2.0022    1.0000 </r>
       <r>    2.0291    1.0000 </r>
       <r>    2.0565    1.0000 </r>
       <r>    2.0673    1.0000 </r>
       <r>    2.0974    1.0000 </r>
       <r>    2.1162    1.0000 </r>
       <r>    2.4085    1.0000 </r>
       <r>    2.5717    1.0000 </r>
       <r>    2.5870    1.0000 </r>
       <r>    2.6885    1.0000 </r>
       <r>    2.7055    1.0000 </r>
       <r>    3.2215    1.0000 </r>
       <r>    3.2426    1.0000 </r>
       <r>    3.2890    1.0000 </r>
       <r>    3.3040    1.0000 </r>
       <r>    3.3408    1.0000 </r>
       <r>    3.5081    1.0000 </r>
       <r>    3.5306    1.0000 </r>
       <r>    3.9149    1.0000 </r>
       <r>    3.9240    1.0000 </r>
       <r>    4.0104    1.0000 </r>
       <r>    4.0335    1.0000 </r>
       <r>    4.0765    1.0000 </r>
       <r>    4.0847    1.0000 </r>
       <r>    4.1149    1.0000 </r>
       <r>    4.2968    1.0000 </r>
       <r>    4.3159    1.0000 </r>
[...]
      </set>
     </set>
    </set>
   </array>
  </eigenvalues>
  <separator name="orbital magnetization" >
   <v name="MAGDIPOLOUT">      0.00000000      0.00000000      0.00000000</v>
  </separator>
  <dos>
   <i name="efermi">      8.14652331 </i>
   <total>
    <array>
     <dimension dim="1">gridpoints</dimension>
     <dimension dim="2">spin</dimension>
     <field>energy</field>
     <field>total</field>
     <field>integrated</field>
     <set>
      <set comment="spin 1">
       <r>    -9.3382     0.0000     0.0000 </r>
       <r>    -9.2488     0.0000     0.0000 </r>
       <r>    -9.1594     0.0000     0.0000 </r>
       <r>    -9.0699     0.0000     0.0000 </r>
       <r>    -8.9805    -0.0000    -0.0000 </r>
       <r>    -8.8911    -0.0000    -0.0000 </r>
       <r>    -8.8017    -0.0000    -0.0000 </r>
       <r>    -8.7122    -0.0000    -0.0000 </r>
       <r>    -8.6228    -0.0000    -0.0000 </r>
       <r>    -8.5334    -0.0000    -0.0000 </r>
       <r>    -8.4440    -0.0000    -0.0000 </r>
       <r>    -8.3545    -0.0000    -0.0000 </r>
       <r>    -8.2651    -0.0000    -0.0000 </r>
       <r>    -8.1757    -0.0000    -0.0000 </r>
       <r>    -8.0863    -0.0000    -0.0000 </r>
       <r>    -7.9969    -0.0000    -0.0000 </r>
       <r>    -7.9074    -0.0002    -0.0000 </r>
       <r>    -7.8180    -0.0014    -0.0001 </r>
       <r>    -7.7286    -0.0072    -0.0008 </r>
       <r>    -7.6392    -0.0230    -0.0028 </r>
       <r>    -7.5497    -0.0416    -0.0066 </r>
       <r>    -7.4603    -0.0191    -0.0083 </r>
       <r>    -7.3709     0.1479     0.0049 </r>
       <r>    -7.2815     0.6345     0.0617 </r>
       <r>    -7.1920     1.5609     0.2013 </r>
       <r>    -7.1026     2.8174     0.4532 </r>
       <r>    -7.0132     4.0355     0.8141 </r>
       <r>    -6.9238     4.5672     1.2225 </r>
       <r>    -6.8344     4.0725     1.5867 </r>
       <r>    -6.7449     3.0961     1.8635 </r>
       <r>    -6.6555     2.7274     2.1074 </r>
       <r>    -6.5661     4.1134     2.4752 </r>
       <r>    -6.4767     7.1964     3.1188 </r>
       <r>    -6.3872     9.9634     4.0097 </r>
       <r>    -6.2978    10.2852     4.9295 </r>
       <r>    -6.2084     7.6554     5.6140 </r>
       <r>    -6.1190     3.7618     5.9504 </r>
       <r>    -6.0295     1.8950     6.1199 </r>
       <r>    -5.9401     3.6081     6.4425 </r>
       <r>    -5.8507     7.2793     7.0935 </r>
       <r>    -5.7613    10.4471     8.0277 </r>
       <r>    -5.6719    11.7019     9.0741 </r>
       <r>    -5.5824    11.5046    10.1029 </r>
       <r>    -5.4930    11.0835    11.0940 </r>
       <r>    -5.4036    10.0822    11.9956 </r>
       <r>    -5.3142     7.7522    12.6888 </r>
       <r>    -5.2247     6.0853    13.2330 </r>
       <r>    -5.1353     8.2431    13.9701 </r>
       <r>    -5.0459    13.7372    15.1985 </r>
       <r>    -4.9565    17.1972    16.7363 </r>
       <r>    -4.8671    13.7597    17.9668 </r>
       <r>    -4.7776     6.1857    18.5199 </r>
       <r>    -4.6882     2.4691    18.7407 </r>
       <r>    -4.5988     5.9835    19.2758 </r>
       <r>    -4.5094    12.7840    20.4190 </r>
       <r>    -4.4199    17.9439    22.0236 </r>
       <r>    -4.3305    19.7240    23.7873 </r>
       <r>    -4.2411    17.7967    25.3788 </r>
       <r>    -4.1517    14.4889    26.6744 </r>
       <r>    -4.0622    16.0527    28.1099 </r>
       <r>    -3.9728    22.7215    30.1417 </r>
       <r>    -3.8834    24.7227    32.3525 </r>
       <r>    -3.7940    17.9819    33.9605 </r>
       <r>    -3.7046    10.8577    34.9314 </r>
       <r>    -3.6151    10.4787    35.8684 </r>
       <r>    -3.5257    15.8742    37.2879 </r>
       <r>    -3.4363    22.3691    39.2883 </r>
       <r>    -3.3469    24.0025    41.4346 </r>
       <r>    -3.2574    19.3491    43.1649 </r>
       <r>    -3.1680    15.1725    44.5217 </r>
       <r>    -3.0786    16.0936    45.9608 </r>
       <r>    -2.9892    19.9394    47.7438 </r>
       <r>    -2.8997    25.2883    50.0052 </r>
       <r>    -2.8103    29.9582    52.6841 </r>
       <r>    -2.7209    28.0063    55.1886 </r>
       <r>    -2.6315    19.0680    56.8937 </r>
       <r>    -2.5421    11.0320    57.8802 </r>
       <r>    -2.4526     9.6067    58.7392 </r>
       <r>    -2.3632    13.5331    59.9494 </r>
       <r>    -2.2738    17.3357    61.4996 </r>
       <r>    -2.1844    15.8046    62.9129 </r>
       <r>    -2.0949     9.4840    63.7610 </r>
       <r>    -2.0055     3.3081    64.0568 </r>
       <r>    -1.9161     0.2062    64.0753 </r>
       <r>    -1.8267    -0.4562    64.0345 </r>
       <r>    -1.7372    -0.2770    64.0097 </r>
       <r>    -1.6478    -0.0880    64.0018 </r>
       <r>    -1.5584    -0.0178    64.0002 </r>
       <r>    -1.4690    -0.0024    64.0000 </r>
       <r>    -1.3796    -0.0002    64.0000 </r>
       <r>    -1.2901    -0.0000    64.0000 </r>
       <r>    -1.2007    -0.0000    64.0000 </r>
       <r>    -1.1113    -0.0002    64.0000 </r>
       <r>    -1.0219    -0.0019    63.9998 </r>
       <r>    -0.9324    -0.0113    63.9988 </r>
       <r>    -0.8430    -0.0393    63.9953 </r>
       <r>    -0.7536    -0.0570    63.9902 </r>
       <r>    -0.6642     0.0796    63.9973 </r>
       <r>    -0.5747     0.4580    64.0383 </r>
       <r>    -0.4853     0.7260    64.1032 </r>
       <r>    -0.3959     0.7048    64.1662 </r>
       <r>    -0.3065     1.7584    64.3235 </r>
       <r>    -0.2171     5.4006    64.8064 </r>
       <r>    -0.1276     9.8266    65.6851 </r>
       <r>    -0.0382    11.0543    66.6736 </r>
       <r>     0.0512     8.2928    67.4152 </r>
       <r>     0.1406     5.7040    67.9253 </r>
       <r>     0.2301     7.5671    68.6019 </r>
       <r>     0.3195    13.2092    69.7831 </r>
       <r>     0.4089    19.2124    71.5012 </r>
       <r>     0.4983    23.3900    73.5928 </r>
       <r>     0.5877    24.8726    75.8170 </r>
       <r>     0.6772    25.5010    78.0973 </r>
       <r>     0.7666    28.8331    80.6757 </r>
       <r>     0.8560    32.6547    83.5957 </r>
       <r>     0.9454    31.3056    86.3952 </r>
       <r>     1.0349    27.7660    88.8781 </r>
       <r>     1.1243    30.1812    91.5770 </r>
       <r>     1.2137    37.5972    94.9390 </r>
       <r>     1.3031    39.6112    98.4812 </r>
       <r>     1.3926    30.1926   101.1811 </r>
       <r>     1.4820    15.2237   102.5425 </r>
       <r>     1.5714     3.8803   102.8895 </r>
       <r>     1.6608    -0.8556   102.8129 </r>
       <r>     1.7502    -1.1313   102.7118 </r>
       <r>     1.8397     1.4080   102.8377 </r>
       <r>     1.9291     8.2280   103.5735 </r>
       <r>     2.0185    19.3191   105.3010 </r>
       <r>     2.1079    27.1621   107.7299 </r>
       <r>     2.1974    24.0817   109.8834 </r>
       <r>     2.2868    13.8620   111.1230 </r>
       <r>     2.3762     6.1330   111.6714 </r>
       <r>     2.4656     5.1830   112.1349 </r>
       <r>     2.5551     9.9432   113.0240 </r>
       <r>     2.6445    16.2735   114.4793 </r>
       <r>     2.7339    17.8889   116.0789 </r>
       <r>     2.8233    14.0411   117.3345 </r>
       <r>     2.9127    12.3117   118.4355 </r>
       <r>     3.0022    16.2777   119.8911 </r>
       <r>     3.0916    21.5012   121.8138 </r>
       <r>     3.1810    26.7528   124.2061 </r>
       <r>     3.2704    32.7447   127.1342 </r>
       <r>     3.3599    34.0357   130.1778 </r>
       <r>     3.4493    29.2773   132.7959 </r>
       <r>     3.5387    25.6227   135.0871 </r>
       <r>     3.6281    23.9595   137.2296 </r>
       <r>     3.7176    19.0815   138.9360 </r>
       <r>     3.8070    12.6784   140.0697 </r>
       <r>     3.8964    12.7551   141.2103 </r>
       <r>     3.9858    20.7042   143.0617 </r>
       <r>     4.0752    26.1640   145.4014 </r>
       <r>     4.1647    22.0733   147.3753 </r>
       <r>     4.2541    17.5646   148.9459 </r>
       <r>     4.3435    22.6620   150.9724 </r>
       <r>     4.4329    31.8833   153.8235 </r>
       <r>     4.5224    36.4117   157.0796 </r>
       <r>     4.6118    36.1133   160.3089 </r>
       <r>     4.7012    34.1800   163.3654 </r>
       <r>     4.7906    34.1147   166.4160 </r>
       <r>     4.8800    36.4299   169.6737 </r>
       <r>     4.9695    35.8160   172.8765 </r>
       <r>     5.0589    31.6155   175.7036 </r>
       <r>     5.1483    29.8026   178.3687 </r>
       <r>     5.2377    30.8879   181.1308 </r>
       <r>     5.3272    30.5859   183.8658 </r>
       <r>     5.4166    29.8110   186.5316 </r>
       <r>     5.5060    34.0774   189.5789 </r>
       <r>     5.5954    42.2571   193.3577 </r>
       <r>     5.6849    44.3191   197.3208 </r>
       <r>     5.7743    38.2227   200.7388 </r>
       <r>     5.8637    33.7560   203.7574 </r>
       <r>     5.9531    33.4566   206.7491 </r>
       <r>     6.0425    31.1682   209.5363 </r>
       <r>     6.1320    27.7141   212.0146 </r>
       <r>     6.2214    29.2812   214.6330 </r>
       <r>     6.3108    34.1803   217.6895 </r>
       <r>     6.4002    36.7034   220.9716 </r>
       <r>     6.4897    35.1571   224.1155 </r>
       <r>     6.5791    29.6565   226.7674 </r>
       <r>     6.6685    24.8655   228.9910 </r>
       <r>     6.7579    27.9785   231.4929 </r>
       <r>     6.8474    38.0284   234.8935 </r>
       <r>     6.9368    44.1823   238.8444 </r>
       <r>     7.0262    37.3783   242.1869 </r>
       <r>     7.1156    22.4144   244.1913 </r>
       <r>     7.2050    11.8929   245.2548 </r>
       <r>     7.2945    10.8312   246.2233 </r>
       <r>     7.3839    15.1468   247.5778 </r>
       <r>     7.4733    19.8492   249.3528 </r>
       <r>     7.5627    21.8642   251.3079 </r>
       <r>     7.6522    19.6596   253.0659 </r>
       <r>     7.7416    13.7955   254.2996 </r>
       <r>     7.8310     7.3190   254.9541 </r>
       <r>     7.9204     4.0665   255.3177 </r>
       <r>     8.0099     3.7677   255.6546 </r>
       <r>     8.0993     3.0111   255.9239 </r>
       <r>     8.1887     1.1946   256.0307 </r>
       <r>     8.2781    -0.0069   256.0301 </r>
       <r>     8.3675    -0.2140   256.0110 </r>
       <r>     8.4570    -0.0969   256.0023 </r>
       <r>     8.5464    -0.0223   256.0003 </r>
       <r>     8.6358    -0.0031   256.0000 </r>
       <r>     8.7252    -0.0004   256.0000 </r>
       <r>     8.8147    -0.0011   255.9999 </r>
       <r>     8.9041    -0.0070   255.9993 </r>
       <r>     8.9935    -0.0256   255.9970 </r>
       <r>     9.0829    -0.0405   255.9934 </r>
       <r>     9.1724     0.0487   255.9977 </r>
       <r>     9.2618     0.3500   256.0290 </r>
       <r>     9.3512     0.6923   256.0909 </r>
       <r>     9.4406     0.7537   256.1583 </r>
       <r>     9.5300     0.7638   256.2266 </r>
       <r>     9.6195     1.2453   256.3380 </r>
       <r>     9.7089     1.7638   256.4957 </r>
       <r>     9.7983     1.4018   256.6210 </r>
       <r>     9.8877     0.4113   256.6578 </r>
       <r>     9.9772    -0.1254   256.6466 </r>
       <r>    10.0666     0.4673   256.6884 </r>
       <r>    10.1560     1.9684   256.8644 </r>
       <r>    10.2454     3.4906   257.1766 </r>
       <r>    10.3348     5.2465   257.6457 </r>
       <r>    10.4243     8.1908   258.3782 </r>
       <r>    10.5137    10.9234   259.3550 </r>
       <r>    10.6031    11.5780   260.3903 </r>
       <r>    10.6925    10.5855   261.3369 </r>
       <r>    10.7820     8.0828   262.0597 </r>
       <r>    10.8714     4.1334   262.4293 </r>
       <r>    10.9608     0.7206   262.4937 </r>
       <r>    11.0502    -0.7202   262.4293 </r>
       <r>    11.1397    -0.3220   262.4005 </r>
       <r>    11.2291     2.0084   262.5801 </r>
       <r>    11.3185     5.4816   263.0703 </r>
       <r>    11.4079     7.8417   263.7715 </r>
       <r>    11.4973     9.2584   264.5994 </r>
       <r>    11.5868    11.3663   265.6158 </r>
       <r>    11.6762    12.9467   266.7736 </r>
       <r>    11.7656    14.0997   268.0344 </r>
       <r>    11.8550    17.5545   269.6042 </r>
       <r>    11.9445    21.5135   271.5280 </r>
       <r>    12.0339    21.7056   273.4690 </r>
       <r>    12.1233    18.4349   275.1175 </r>
       <r>    12.2127    13.6471   276.3378 </r>
       <r>    12.3022     7.6924   277.0257 </r>
       <r>    12.3916     2.9326   277.2880 </r>
       <r>    12.4810     3.9433   277.6406 </r>
       <r>    12.5704    11.7331   278.6898 </r>
       <r>    12.6598    20.9475   280.5630 </r>
       <r>    12.7493    26.1284   282.8994 </r>
       <r>    12.8387    27.8266   285.3878 </r>
       <r>    12.9281    28.6870   287.9531 </r>
       <r>    13.0175    30.8389   290.7108 </r>
       <r>    13.1070    34.9694   293.8378 </r>
       <r>    13.1964    35.6084   297.0220 </r>
       <r>    13.2858    27.3329   299.4662 </r>
       <r>    13.3752    15.8755   300.8859 </r>
       <r>    13.4647    13.3588   302.0805 </r>
       <r>    13.5541    22.9550   304.1332 </r>
       <r>    13.6435    34.1361   307.1857 </r>
       <r>    13.7329    36.0425   310.4087 </r>
       <r>    13.8223    30.2401   313.1129 </r>
       <r>    13.9118    26.2590   315.4610 </r>
       <r>    14.0012    28.4869   318.0084 </r>
       <r>    14.0906    31.8598   320.8574 </r>
       <r>    14.1800    29.7182   323.5149 </r>
       <r>    14.2695    20.9782   325.3908 </r>
       <r>    14.3589    10.0908   326.2932 </r>
       <r>    14.4483     2.8488   326.5479 </r>
       <r>    14.5377     2.4180   326.7642 </r>
       <r>    14.6272     8.7558   327.5471 </r>
       <r>    14.7166    17.4567   329.1082 </r>
       <r>    14.8060    21.3156   331.0143 </r>
       <r>    14.8954    18.5231   332.6706 </r>
       <r>    14.9848    13.0805   333.8403 </r>
       <r>    15.0743     7.6263   334.5223 </r>
       <r>    15.1637     3.0269   334.7930 </r>
       <r>    15.2531     0.7064   334.8562 </r>
       <r>    15.3425     1.4702   334.9876 </r>
       <r>    15.4320     3.7568   335.3236 </r>
       <r>    15.5214     4.5063   335.7265 </r>
       <r>    15.6108     2.7901   335.9760 </r>
       <r>    15.7002     0.6966   336.0383 </r>
       <r>    15.7896    -0.1719   336.0230 </r>
       <r>    15.8791    -0.1831   336.0066 </r>
       <r>    15.9685    -0.0610   336.0011 </r>
       <r>    16.0579    -0.0113   336.0001 </r>
       <r>    16.1473    -0.0013   336.0000 </r>
       <r>    16.2368    -0.0001   336.0000 </r>
       <r>    16.3262    -0.0000   336.0000 </r>
       <r>    16.4156    -0.0000   336.0000 </r>
       <r>    16.5050    -0.0000   336.0000 </r>
       <r>    16.5945    -0.0000   336.0000 </r>
       <r>    16.6839    -0.0000   336.0000 </r>
       <r>    16.7733    -0.0000   336.0000 </r>
       <r>    16.8627     0.0000   336.0000 </r>
       <r>    16.9521     0.0000   336.0000 </r>
       <r>    17.0416     0.0000   336.0000 </r>
       <r>    17.1310     0.0000   336.0000 </r>
       <r>    17.2204     0.0000   336.0000 </r>
       <r>    17.3098     0.0000   336.0000 </r>
       <r>    17.3993     0.0000   336.0000 </r>
       <r>    17.4887     0.0000   336.0000 </r>
      </set>
     </set>
    </array>
   </total>
  </dos>
 </calculation>
 <structure name="finalpos" >
  <crystal>
   <varray name="basis" >
    <v>       8.74331558       0.00000000       0.00000000 </v>
    <v>       0.00000000       8.74331558       0.00000000 </v>
    <v>       0.00000000       0.00000000       8.74331558 </v>
   </varray>
   <i name="volume">    668.38771987 </i>
   <varray name="rec_basis" >
    <v>       0.11437309       0.00000000       0.00000000 </v>
    <v>       0.00000000       0.11437309       0.00000000 </v>
    <v>       0.00000000       0.00000000       0.11437309 </v>
   </varray>
  </crystal>
  <varray name="positions" >
   <v>       0.12493777       0.12520480       0.12444082 </v>
   <v>       0.12418297       0.37439746       0.37347733 </v>
   <v>       0.37724886       0.12706944       0.37580706 </v>
   <v>       0.37313101       0.37592442       0.12467808 </v>
   <v>       0.12594263       0.12683626       0.62855510 </v>
   <v>       0.12566261       0.37478478       0.87441826 </v>
   <v>       0.37324261       0.12725955       0.87763139 </v>
   <v>       0.37584502       0.37587337       0.62522455 </v>
   <v>       0.12324576       0.62666747       0.12356094 </v>
   <v>       0.12763183       0.87752480       0.37553388 </v>
   <v>       0.37715261       0.62388188       0.37474487 </v>
   <v>       0.37579837       0.87712390       0.12620510 </v>
   <v>       0.12684951       0.62496733       0.62538353 </v>
   <v>       0.12783600       0.87468127       0.87398792 </v>
   <v>       0.37865320       0.62509392       0.87669852 </v>
   <v>       0.37370910       0.87439138       0.62188773 </v>
   <v>       0.62337932       0.12311022       0.12427631 </v>
   <v>       0.62567099       0.37721650       0.37099137 </v>
   <v>       0.87264073       0.12470663       0.37270153 </v>
   <v>       0.87788535       0.37480319       0.12478631 </v>
   <v>       0.62366516       0.12704312       0.62615919 </v>
   <v>       0.62269043       0.37145916       0.87674994 </v>
   <v>       0.87429323       0.12700459       0.87442485 </v>
   <v>       0.86980151       0.37263541       0.62488984 </v>
   <v>       0.62467894       0.62557132       0.12353676 </v>
   <v>       0.62825394       0.87558165       0.37669298 </v>
   <v>       0.87397524       0.62459011       0.37546767 </v>
   <v>       0.87539356       0.87518295       0.12344015 </v>
   <v>       0.62361352       0.62474745       0.62621813 </v>
   <v>       0.62412886       0.87886860       0.87722320 </v>
   <v>       0.87506143       0.62336270       0.87502797 </v>
   <v>       0.87728170       0.87663569       0.62236914 </v>
   <v>       0.00007538       0.99985500       0.00224921 </v>
   <v>       0.99978197       0.25150982       0.24882855 </v>
   <v>       0.24864926       0.99922704       0.25062719 </v>
   <v>       0.24789225       0.24897386       0.99897651 </v>
   <v>       0.00013767       0.99781804       0.49806476 </v>
   <v>       0.00342433       0.24905461       0.74889260 </v>
   <v>       0.25065282       0.00041612       0.75506164 </v>
   <v>       0.25345223       0.24966234       0.50079319 </v>
   <v>       0.00036604       0.49909777       0.00344907 </v>
   <v>       0.00168448       0.75234757       0.25198562 </v>
   <v>       0.24921285       0.49941547       0.25316279 </v>
   <v>       0.24800233       0.74788901       0.00054396 </v>
   <v>       0.00047702       0.49810180       0.50033865 </v>
   <v>       0.99929677       0.75029216       0.74840926 </v>
   <v>       0.24747471       0.49977753       0.74609025 </v>
   <v>       0.24822107       0.75035327       0.50159760 </v>
   <v>       0.50328377       0.00128631       0.00411343 </v>
   <v>       0.50111546       0.25148127       0.24783774 </v>
   <v>       0.75052709       0.99934230       0.25218492 </v>
   <v>       0.75096906       0.24660010       0.99786867 </v>
   <v>       0.50171204       0.99842597       0.49773398 </v>
   <v>       0.49898493       0.25225426       0.75094922 </v>
   <v>       0.74814708       0.99969843       0.74979522 </v>
   <v>       0.74814107       0.24975361       0.49652940 </v>
   <v>       0.50053869       0.50202577       0.99759500 </v>
   <v>       0.49917136       0.74709280       0.25138327 </v>
   <v>       0.74901055       0.50347035       0.25076540 </v>
   <v>       0.75234284       0.75370739       0.99703815 </v>
   <v>       0.49876189       0.49936558       0.50127659 </v>
   <v>       0.49839323       0.75206350       0.75027562 </v>
   <v>       0.75013582       0.49983359       0.75165308 </v>
   <v>       0.75163015       0.75028370       0.50043480 </v>
  </varray>
 </structure>
</modeling>
