unknown system                          
           1
     8.743316    0.000000    0.000000
     0.000000    8.743316    0.000000
     0.000000    0.000000    8.743316
   C    Si
    32    32
Direct configuration=     1
   0.12493777  0.12520480  0.12444082
   0.12418297  0.37439746  0.37347733
   0.37724886  0.12706944  0.37580706
   0.37313101  0.37592442  0.12467808
   0.12594263  0.12683626  0.62855510
   0.12566261  0.37478478  0.87441826
   0.37324261  0.12725955  0.87763139
   0.37584502  0.37587337  0.62522455
   0.12324576  0.62666747  0.12356094
   0.12763183  0.87752480  0.37553388
   0.37715261  0.62388188  0.37474487
   0.37579837  0.87712390  0.12620510
   0.12684951  0.62496733  0.62538353
   0.12783600  0.87468127  0.87398792
   0.37865320  0.62509392  0.87669852
   0.37370910  0.87439138  0.62188773
   0.62337932  0.12311022  0.12427631
   0.62567099  0.37721650  0.37099137
   0.87264073  0.12470663  0.37270153
   0.87788535  0.37480319  0.12478631
   0.62366516  0.12704312  0.62615919
   0.62269043  0.37145916  0.87674994
   0.87429323  0.12700459  0.87442485
   0.86980151  0.37263541  0.62488984
   0.62467894  0.62557132  0.12353676
   0.62825394  0.87558165  0.37669298
   0.87397524  0.62459011  0.37546767
   0.87539356  0.87518295  0.12344015
   0.62361352  0.62474745  0.62621813
   0.62412886  0.87886860  0.87722320
   0.87506143  0.62336270  0.87502797
   0.87728170  0.87663569  0.62236914
   0.00007538  0.99985500  0.00224921
   0.99978197  0.25150982  0.24882855
   0.24864926  0.99922704  0.25062719
   0.24789225  0.24897386  0.99897651
   0.00013767  0.99781804  0.49806476
   0.00342433  0.24905461  0.74889260
   0.25065282  0.00041612  0.75506164
   0.25345223  0.24966234  0.50079319
   0.00036604  0.49909777  0.00344907
   0.00168448  0.75234757  0.25198562
   0.24921285  0.49941547  0.25316279
   0.24800233  0.74788901  0.00054396
   0.00047702  0.49810180  0.50033865
   0.99929677  0.75029216  0.74840926
   0.24747471  0.49977753  0.74609025
   0.24822107  0.75035327  0.50159760
   0.50328377  0.00128631  0.00411343
   0.50111546  0.25148127  0.24783774
   0.75052709  0.99934230  0.25218492
   0.75096906  0.24660010  0.99786867
   0.50171204  0.99842597  0.49773398
   0.49898493  0.25225426  0.75094922
   0.74814708  0.99969843  0.74979522
   0.74814107  0.24975361  0.49652940
   0.50053869  0.50202577  0.99759500
   0.49917136  0.74709280  0.25138327
   0.74901055  0.50347035  0.25076540
   0.75234284  0.75370739  0.99703815
   0.49876189  0.49936558  0.50127659
   0.49839323  0.75206350  0.75027562
   0.75013582  0.49983359  0.75165308
   0.75163015  0.75028370  0.50043480
