       N       E                     dE             d eps       ncg     rms          rms(c)
DAV:   1     0.668316233582E+03    0.66832E+03   -0.99547E+04  4704   0.111E+03
DAV:   2    -0.463145155301E+03   -0.11315E+04   -0.10711E+04  5816   0.221E+02
DAV:   3    -0.538293645609E+03   -0.75148E+02   -0.74455E+02  5680   0.561E+01
DAV:   4    -0.539950665500E+03   -0.16570E+01   -0.16498E+01  5704   0.903E+00
DAV:   5    -0.539998021330E+03   -0.47356E-01   -0.47281E-01  5536   0.145E+00    0.491E+01
DAV:   6    -0.483557745110E+03    0.56440E+02   -0.18980E+02  5360   0.234E+01    0.218E+01
DAV:   7    -0.482186595976E+03    0.13711E+01   -0.15476E+01  5904   0.695E+00    0.971E+00
DAV:   8    -0.481960388375E+03    0.22621E+00   -0.99157E-01  5376   0.193E+00    0.254E+00
DAV:   9    -0.481944258058E+03    0.16130E-01   -0.13264E-01  5432   0.776E-01    0.417E-01
DAV:  10    -0.481947835086E+03   -0.35770E-02   -0.12297E-02  5664   0.229E-01    0.213E-01
DAV:  11    -0.481948476212E+03   -0.64113E-03   -0.15569E-03  5104   0.100E-01    0.587E-02
DAV:  12    -0.481948474606E+03    0.16054E-05   -0.18031E-04  5664   0.302E-02    0.282E-02
DAV:  13    -0.481948478060E+03   -0.34537E-05   -0.28673E-05  5264   0.140E-02    0.889E-03
DAV:  14    -0.481948484911E+03   -0.68514E-05   -0.57939E-06  5472   0.469E-03    0.416E-03
DAV:  15    -0.481948486448E+03   -0.15364E-05   -0.62510E-07  5520   0.196E-03    0.294E-03
DAV:  16    -0.481948486492E+03   -0.44623E-07   -0.41430E-08  4944   0.513E-04    0.161E-03
DAV:  17    -0.481948486323E+03    0.16916E-06   -0.11278E-08  2968   0.269E-04    0.361E-04
DAV:  18    -0.481948486348E+03   -0.24807E-07   -0.44119E-09  2776   0.162E-04    0.158E-04
DAV:  19    -0.481948486319E+03    0.28573E-07   -0.56062E-10  2736   0.624E-05    0.560E-05
DAV:  20    -0.481948486323E+03   -0.31432E-08   -0.18412E-10  2688   0.334E-05
   1 F= -.48194849E+03 E0= -.48195153E+03  d E =0.914546E-02
