unknown system                          
           1
     8.743316    0.000000    0.000000
     0.000000    8.743316    0.000000
     0.000000    0.000000    8.743316
   C    Si
    32    32
Direct configuration=     1
   0.12502696  0.12435954  0.12466223
   0.12392974  0.37478542  0.37526697
   0.37531642  0.12488115  0.37522786
   0.37557582  0.37396307  0.12491067
   0.12473037  0.12552949  0.62431084
   0.12476981  0.37564333  0.87542015
   0.37587091  0.12426615  0.87469554
   0.37589709  0.37546999  0.62477728
   0.12272698  0.62428203  0.12405830
   0.12463726  0.87616572  0.37353347
   0.37438077  0.62660468  0.37556312
   0.37409375  0.87517239  0.12529086
   0.12407496  0.62478945  0.62403011
   0.12456591  0.87500112  0.87561755
   0.37466524  0.62561479  0.87539285
   0.37584269  0.87590919  0.62474921
   0.62545954  0.12463667  0.12622306
   0.62602385  0.37456472  0.37517751
   0.87435153  0.12623353  0.37589196
   0.87424209  0.37593951  0.12503928
   0.62442781  0.12476928  0.62576488
   0.62633976  0.37569885  0.87415320
   0.87501321  0.12548639  0.87637309
   0.87289949  0.37665538  0.62399406
   0.62499192  0.62505425  0.12264707
   0.62499569  0.87524057  0.37471914
   0.87608400  0.62546655  0.37580726
   0.87504952  0.87410282  0.12541748
   0.62394692  0.62587901  0.62491713
   0.62397227  0.87619728  0.87444855
   0.87567265  0.62367676  0.87415771
   0.87368699  0.87459109  0.62524731
   0.00084216  0.00041252  0.00058111
   0.99940918  0.24942563  0.25140043
   0.24941770  0.00045985  0.24829220
   0.24849190  0.25033672  0.99879796
   0.99930107  0.99955154  0.50070552
   0.99924389  0.24818996  0.75016887
   0.25060971  0.00102526  0.75118209
   0.25081989  0.24821142  0.50199464
   0.99959304  0.50070089  0.00033450
   0.00143714  0.74988633  0.24918715
   0.24936147  0.49930534  0.25037042
   0.24953200  0.74974897  0.00022804
   0.00044814  0.49959510  0.50113159
   0.00115565  0.74954485  0.74910395
   0.24968999  0.50014306  0.74944027
   0.24961981  0.75027195  0.50053629
   0.49909470  0.00013351  0.00082440
   0.50140384  0.25100761  0.25021138
   0.74931860  0.99946640  0.25116486
   0.74952265  0.24881238  0.00029652
   0.50019259  0.00026570  0.49867764
   0.49815660  0.25056668  0.74923835
   0.75027873  0.99980013  0.74950338
   0.75191279  0.24938608  0.49953999
   0.49953693  0.50070055  0.99982641
   0.49887652  0.75094300  0.24987662
   0.75060383  0.50015400  0.25122000
   0.74928484  0.75031400  0.00115537
   0.49901027  0.50046433  0.49905872
   0.49974655  0.74983774  0.74957845
   0.75047510  0.49846364  0.74814438
   0.75036113  0.75000495  0.50092263
