       N       E                     dE             d eps       ncg     rms          rms(c)
DAV:   1     0.669848590851E+03    0.66985E+03   -0.99563E+04  4704   0.111E+03
DAV:   2    -0.461952164078E+03   -0.11318E+04   -0.10715E+04  5832   0.221E+02
DAV:   3    -0.537068295023E+03   -0.75116E+02   -0.74418E+02  5672   0.561E+01
DAV:   4    -0.538734718435E+03   -0.16664E+01   -0.16597E+01  5712   0.905E+00
DAV:   5    -0.538779046307E+03   -0.44328E-01   -0.44261E-01  5544   0.141E+00    0.493E+01
DAV:   6    -0.481905001059E+03    0.56874E+02   -0.19083E+02  5344   0.235E+01    0.219E+01
DAV:   7    -0.480563522048E+03    0.13415E+01   -0.15816E+01  5872   0.708E+00    0.976E+00
DAV:   8    -0.480333712996E+03    0.22981E+00   -0.10221E+00  5424   0.197E+00    0.268E+00
DAV:   9    -0.480317223357E+03    0.16490E-01   -0.14452E-01  5496   0.830E-01    0.448E-01
DAV:  10    -0.480320263316E+03   -0.30400E-02   -0.13705E-02  5656   0.260E-01    0.242E-01
DAV:  11    -0.480321279010E+03   -0.10157E-02   -0.19565E-03  5248   0.115E-01    0.882E-02
DAV:  12    -0.480321352693E+03   -0.73683E-04   -0.35063E-04  5928   0.465E-02    0.393E-02
DAV:  13    -0.480321367062E+03   -0.14368E-04   -0.94393E-05  5144   0.233E-02    0.104E-02
DAV:  14    -0.480321372301E+03   -0.52390E-05   -0.64660E-06  5504   0.609E-03    0.537E-03
DAV:  15    -0.480321374131E+03   -0.18302E-05   -0.24186E-06  5648   0.346E-03    0.410E-03
DAV:  16    -0.480321373935E+03    0.19602E-06   -0.29629E-07  5776   0.142E-03    0.119E-03
DAV:  17    -0.480321374262E+03   -0.32751E-06   -0.82140E-08  5224   0.636E-04    0.731E-04
DAV:  18    -0.480321374284E+03   -0.21297E-07   -0.60863E-09  2744   0.216E-04    0.254E-04
DAV:  19    -0.480321374259E+03    0.24604E-07   -0.51827E-09  2696   0.166E-04    0.106E-04
DAV:  20    -0.480321374268E+03   -0.87675E-08   -0.80761E-10  2688   0.864E-05
   1 F= -.48032137E+03 E0= -.48032497E+03  d E =0.107870E-01
