<?xml version="1.0" encoding="ISO-8859-1"?>
<modeling>
 <generator>
  <i name="program" type="string">vasp </i>
  <i name="version" type="string">6.2.1  </i>
  <i name="subversion" type="string">16May21 (build Jun 06 2020 10:27:25) complex                          parallel </i>
  <i name="platform" type="string">LinuxIFC </i>
  <i name="date" type="string">2024 01 25 </i>
  <i name="time" type="string">16:57:22 </i>
 </generator>
 <incar>
  <i type="int" name="NELM">    60</i>
  <i type="int" name="IBRION">     1</i>
  <i name="EDIFF">      0.00000001</i>
  <i type="int" name="NSW">     0</i>
  <i type="int" name="ISIF">     3</i>
  <i type="int" name="ISYM">     0</i>
  <i type="logical" name="LWAVE"> F  </i>
  <i type="logical" name="LCHARG"> F  </i>
  <i type="string" name="GGA">PE</i>
 </incar>
 <primitive_cell>
  <structure name="primitive_cell" >
   <crystal>
    <varray name="basis" >
     <v>       8.74331558       0.00000000       0.00000000 </v>
     <v>       0.00000000       8.74331558       0.00000000 </v>
     <v>       0.00000000       0.00000000       8.74331558 </v>
    </varray>
    <i name="volume">    668.38771987 </i>
    <varray name="rec_basis" >
     <v>       0.11437309       0.00000000       0.00000000 </v>
     <v>       0.00000000       0.11437309       0.00000000 </v>
     <v>       0.00000000       0.00000000       0.11437309 </v>
    </varray>
   </crystal>
   <varray name="positions" >
    <v>       0.12676858       0.12309554       0.12725026 </v>
    <v>       0.12972846       0.37341967       0.37839374 </v>
    <v>       0.37449683       0.12598300       0.37597961 </v>
    <v>       0.37414369       0.37423531       0.12859837 </v>
    <v>       0.12904736       0.12798938       0.62721704 </v>
    <v>       0.12589384       0.36846811       0.87710751 </v>
    <v>       0.37290701       0.12878984       0.87526674 </v>
    <v>       0.37701380       0.37459048       0.62620271 </v>
    <v>       0.12488081       0.62496293       0.12445732 </v>
    <v>       0.12619108       0.87353020       0.38010454 </v>
    <v>       0.37384480       0.62890454       0.37169809 </v>
    <v>       0.36970326       0.87696002       0.12418132 </v>
    <v>       0.13083091       0.62490679       0.62454263 </v>
    <v>       0.12269387       0.87542817       0.87814442 </v>
    <v>       0.37408510       0.61763641       0.87103627 </v>
    <v>       0.37478628       0.87515982       0.62632095 </v>
    <v>       0.62909607       0.12473283       0.12413991 </v>
    <v>       0.62599309       0.37985716       0.36864261 </v>
    <v>       0.87165621       0.12223307       0.37013252 </v>
    <v>       0.87432049       0.37616799       0.12833341 </v>
    <v>       0.62791094       0.12402137       0.62667000 </v>
    <v>       0.62630917       0.37985174       0.87808584 </v>
    <v>       0.87556927       0.11953642       0.87026435 </v>
    <v>       0.87323962       0.37996979       0.62210561 </v>
    <v>       0.63066767       0.62446739       0.12727535 </v>
    <v>       0.62659253       0.87556547       0.38153750 </v>
    <v>       0.87230300       0.62032832       0.37436352 </v>
    <v>       0.88004821       0.87161784       0.12327156 </v>
    <v>       0.62487135       0.62414076       0.62388518 </v>
    <v>       0.62177985       0.87063509       0.86757724 </v>
    <v>       0.87631817       0.62157650       0.87728282 </v>
    <v>       0.87233360       0.87743573       0.62114687 </v>
    <v>       0.99791652       0.99853223       0.00018295 </v>
    <v>       0.99726969       0.25712859       0.25125446 </v>
    <v>       0.25578115       0.99859149       0.25100149 </v>
    <v>       0.24570075       0.24832703       0.99650671 </v>
    <v>       0.99904120       0.00092042       0.50041152 </v>
    <v>       0.00345558       0.24605620       0.74907373 </v>
    <v>       0.25001951       0.99625717       0.75062608 </v>
    <v>       0.26074088       0.24938276       0.49925510 </v>
    <v>       0.00445363       0.49608799       0.00105076 </v>
    <v>       0.99565120       0.74793240       0.24396736 </v>
    <v>       0.24862036       0.49819791       0.25022773 </v>
    <v>       0.25259531       0.75154602       0.00016124 </v>
    <v>       0.00003707       0.49685223       0.49737735 </v>
    <v>       0.99907313       0.74869322       0.74752351 </v>
    <v>       0.24873335       0.50064057       0.74768331 </v>
    <v>       0.25548384       0.74719201       0.49691920 </v>
    <v>       0.50149510       0.99786995       0.99614088 </v>
    <v>       0.49594079       0.24621846       0.25060113 </v>
    <v>       0.75152944       0.99686541       0.24915026 </v>
    <v>       0.74771216       0.24595285       0.99595439 </v>
    <v>       0.50279044       0.99963476       0.50225273 </v>
    <v>       0.50243643       0.24661545       0.73930894 </v>
    <v>       0.74794778       0.99986658       0.75151994 </v>
    <v>       0.75185696       0.25388828       0.50664485 </v>
    <v>       0.49775041       0.49732151       0.99997392 </v>
    <v>       0.49632542       0.75097906       0.24650041 </v>
    <v>       0.74986979       0.50257072       0.24893061 </v>
    <v>       0.75129065       0.75059305       0.00041450 </v>
    <v>       0.49984477       0.49983087       0.50237045 </v>
    <v>       0.49648042       0.74716562       0.74831561 </v>
    <v>       0.75231740       0.50433622       0.74497828 </v>
    <v>       0.75602007       0.74913163       0.49844408 </v>
   </varray>
  </structure>
  <varray name="primitive_index" >
   <v type="int" >        1 </v>
   <v type="int" >        2 </v>
   <v type="int" >        3 </v>
   <v type="int" >        4 </v>
   <v type="int" >        5 </v>
   <v type="int" >        6 </v>
   <v type="int" >        7 </v>
   <v type="int" >        8 </v>
   <v type="int" >        9 </v>
   <v type="int" >       10 </v>
   <v type="int" >       11 </v>
   <v type="int" >       12 </v>
   <v type="int" >       13 </v>
   <v type="int" >       14 </v>
   <v type="int" >       15 </v>
   <v type="int" >       16 </v>
   <v type="int" >       17 </v>
   <v type="int" >       18 </v>
   <v type="int" >       19 </v>
   <v type="int" >       20 </v>
   <v type="int" >       21 </v>
   <v type="int" >       22 </v>
   <v type="int" >       23 </v>
   <v type="int" >       24 </v>
   <v type="int" >       25 </v>
   <v type="int" >       26 </v>
   <v type="int" >       27 </v>
   <v type="int" >       28 </v>
   <v type="int" >       29 </v>
   <v type="int" >       30 </v>
   <v type="int" >       31 </v>
   <v type="int" >       32 </v>
   <v type="int" >       33 </v>
   <v type="int" >       34 </v>
   <v type="int" >       35 </v>
   <v type="int" >       36 </v>
   <v type="int" >       37 </v>
   <v type="int" >       38 </v>
   <v type="int" >       39 </v>
   <v type="int" >       40 </v>
   <v type="int" >       41 </v>
   <v type="int" >       42 </v>
   <v type="int" >       43 </v>
   <v type="int" >       44 </v>
   <v type="int" >       45 </v>
   <v type="int" >       46 </v>
   <v type="int" >       47 </v>
   <v type="int" >       48 </v>
   <v type="int" >       49 </v>
   <v type="int" >       50 </v>
   <v type="int" >       51 </v>
   <v type="int" >       52 </v>
   <v type="int" >       53 </v>
   <v type="int" >       54 </v>
   <v type="int" >       55 </v>
   <v type="int" >       56 </v>
   <v type="int" >       57 </v>
   <v type="int" >       58 </v>
   <v type="int" >       59 </v>
   <v type="int" >       60 </v>
   <v type="int" >       61 </v>
   <v type="int" >       62 </v>
   <v type="int" >       63 </v>
   <v type="int" >       64 </v>
  </varray>
 </primitive_cell>
 <kpoints>
  <generation param="Monkhorst-Pack">
   <v type="int" name="divisions">       3        3        3 </v>
   <v name="usershift">      0.00000000       0.00000000       0.00000000 </v>
   <v name="genvec1">      0.33333333       0.00000000       0.00000000 </v>
   <v name="genvec2">      0.00000000       0.33333333       0.00000000 </v>
   <v name="genvec3">      0.00000000       0.00000000       0.33333333 </v>
   <v name="shift">      0.00000000       0.00000000       0.00000000 </v>
  </generation>
  <varray name="kpointlist" >
   <v>       0.00000000       0.00000000       0.00000000 </v>
   <v>       0.33333333       0.00000000       0.00000000 </v>
   <v>       0.00000000       0.33333333       0.00000000 </v>
   <v>       0.00000000       0.00000000       0.33333333 </v>
   <v>       0.33333333       0.33333333       0.00000000 </v>
   <v>       0.00000000       0.33333333       0.33333333 </v>
   <v>       0.33333333       0.00000000       0.33333333 </v>
   <v>      -0.33333333       0.33333333       0.00000000 </v>
   <v>      -0.33333333       0.00000000       0.33333333 </v>
   <v>       0.00000000      -0.33333333       0.33333333 </v>
   <v>       0.33333333       0.33333333       0.33333333 </v>
   <v>      -0.33333333       0.33333333       0.33333333 </v>
   <v>      -0.33333333      -0.33333333       0.33333333 </v>
   <v>       0.33333333      -0.33333333       0.33333333 </v>
  </varray>
  <varray name="weights" >
   <v>       0.03703704 </v>
   <v>       0.07407407 </v>
   <v>       0.07407407 </v>
   <v>       0.07407407 </v>
   <v>       0.07407407 </v>
   <v>       0.07407407 </v>
   <v>       0.07407407 </v>
   <v>       0.07407407 </v>
   <v>       0.07407407 </v>
   <v>       0.07407407 </v>
   <v>       0.07407407 </v>
   <v>       0.07407407 </v>
   <v>       0.07407407 </v>
   <v>       0.07407407 </v>
  </varray>
 </kpoints>
 <parameters>
  <separator name="general" >
   <i type="string" name="SYSTEM">unknown system</i>
   <i type="logical" name="LCOMPAT"> F  </i>
  </separator>
  <separator name="electronic" >
   <i type="string" name="PREC">normal</i>
   <i name="ENMAX">    400.00000000</i>
   <i name="ENAUG">    644.87300000</i>
   <i name="EDIFF">      0.00000001</i>
   <i type="int" name="IALGO">    38</i>
   <i type="int" name="IWAVPR">    10</i>
   <i type="int" name="NBANDS">   168</i>
   <i type="int" name="NBANDSLOW">    -1</i>
   <i type="int" name="NBANDSHIGH">    -1</i>
   <i name="NELECT">    256.00000000</i>
   <i type="int" name="TURBO">     0</i>
   <i type="int" name="IRESTART">     0</i>
   <i type="int" name="NREBOOT">     0</i>
   <i type="int" name="NMIN">     0</i>
   <i name="EREF">      0.00000000</i>
   <separator name="electronic smearing" >
    <i type="int" name="ISMEAR">     1</i>
    <i name="SIGMA">      0.20000000</i>
    <i name="KSPACING">      0.50000000</i>
    <i type="logical" name="KGAMMA"> T  </i>
    <i type="logical" name="KBLOWUP"> T  </i>
   </separator>
   <separator name="electronic projectors" >
    <i type="logical" name="LREAL"> F  </i>
    <v name="ROPT">      0.00000000      0.00000000</v>
    <i type="int" name="LMAXPAW">  -100</i>
    <i type="int" name="LMAXMIX">     2</i>
    <i type="logical" name="NLSPLINE"> F  </i>
   </separator>
   <separator name="electronic startup" >
    <i type="int" name="ISTART">     0</i>
    <i type="int" name="ICHARG">     2</i>
    <i type="int" name="INIWAV">     1</i>
   </separator>
   <separator name="electronic spin" >
    <i type="int" name="ISPIN">     1</i>
    <i type="logical" name="LNONCOLLINEAR"> F  </i>
    <v name="MAGMOM">      1.00000000      1.00000000      1.00000000      1.00000000      1.00000000      1.00000000      1.00000000      1.00000000      1.00000000      1.00000000      1.00000000      1.00000000      1.00000000      1.00000000      1.00000000      1.00000000      1.00000000      1.00000000      1.00000000      1.00000000
      1.00000000      1.00000000      1.00000000      1.00000000      1.00000000      1.00000000      1.00000000      1.00000000      1.00000000      1.00000000      1.00000000      1.00000000      1.00000000      1.00000000      1.00000000      1.00000000      1.00000000      1.00000000      1.00000000      1.00000000
      1.00000000      1.00000000      1.00000000      1.00000000      1.00000000      1.00000000      1.00000000      1.00000000      1.00000000      1.00000000      1.00000000      1.00000000      1.00000000      1.00000000      1.00000000      1.00000000      1.00000000      1.00000000      1.00000000      1.00000000
      1.00000000      1.00000000      1.00000000      1.00000000</v>
    <i name="NUPDOWN">     -1.00000000</i>
    <i type="logical" name="LSORBIT"> F  </i>
    <v name="SAXIS">      0.00000000      0.00000000      1.00000000</v>
    <i type="logical" name="LSPIRAL"> F  </i>
    <v name="QSPIRAL">      0.00000000      0.00000000      0.00000000</v>
    <i type="logical" name="LZEROZ"> F  </i>
   </separator>
   <separator name="electronic exchange-correlation" >
    <i type="logical" name="LASPH"> F  </i>
    <i type="logical" name="LMETAGGA"> F  </i>
   </separator>
   <separator name="electronic convergence" >
    <i type="int" name="NELM">    60</i>
    <i type="int" name="NELMDL">    -5</i>
    <i type="int" name="NELMIN">     2</i>
    <i name="ENINI">    400.00000000</i>
    <separator name="electronic convergence detail" >
     <i type="logical" name="LDIAG"> T  </i>
     <i type="logical" name="LSUBROT"> F  </i>
     <i name="WEIMIN">      0.00000000</i>
     <i name="EBREAK">      0.00000000</i>
     <i name="DEPER">      0.30000000</i>
     <i type="int" name="NRMM">     4</i>
     <i name="TIME">      0.40000000</i>
    </separator>
   </separator>
   <separator name="electronic mixer" >
    <i name="AMIX">      0.40000000</i>
    <i name="BMIX">      1.00000000</i>
    <i name="AMIN">      0.10000000</i>
    <i name="AMIX_MAG">      1.60000000</i>
    <i name="BMIX_MAG">      1.00000000</i>
    <separator name="electronic mixer details" >
     <i type="int" name="IMIX">     4</i>
     <i type="logical" name="MIXFIRST"> F  </i>
     <i type="int" name="MAXMIX">   -45</i>
     <i name="WC">    100.00000000</i>
     <i type="int" name="INIMIX">     1</i>
     <i type="int" name="MIXPRE">     1</i>
     <i type="int" name="MREMOVE">     5</i>
    </separator>
   </separator>
   <separator name="electronic dipolcorrection" >
    <i type="logical" name="LDIPOL"> F  </i>
    <i type="logical" name="LMONO"> F  </i>
    <i type="int" name="IDIPOL">     0</i>
    <i name="EPSILON">      1.00000000</i>
    <v name="DIPOL">   -100.00000000   -100.00000000   -100.00000000</v>
    <i name="EFIELD">      0.00000000</i>
   </separator>
  </separator>
  <separator name="grids" >
   <i type="int" name="NGX">    48</i>
   <i type="int" name="NGY">    48</i>
   <i type="int" name="NGZ">    48</i>
   <i type="int" name="NGXF">    96</i>
   <i type="int" name="NGYF">    96</i>
   <i type="int" name="NGZF">    96</i>
   <i type="logical" name="ADDGRID"> F  </i>
  </separator>
  <separator name="ionic" >
   <i type="int" name="NSW">     0</i>
   <i type="int" name="IBRION">    -1</i>
   <i type="int" name="MDALGO">     0</i>
   <i type="int" name="ISIF">     3</i>
   <i name="PSTRESS">      0.00000000</i>
   <i name="EDIFFG">      0.00000010</i>
   <i type="int" name="NFREE">     0</i>
   <i name="POTIM">      0.50000000</i>
   <i name="SMASS">     -3.00000000</i>
   <i name="SCALEE">      1.00000000</i>
  </separator>
  <separator name="ionic md" >
   <i name="TEBEG">      0.00010000</i>
   <i name="TEEND">      0.00010000</i>
   <i type="int" name="NBLOCK">     1</i>
   <i type="int" name="KBLOCK">     1</i>
   <i type="int" name="NPACO">   256</i>
   <i name="APACO">     16.00000000</i>
  </separator>
  <separator name="symmetry" >
   <i type="int" name="ISYM">     0</i>
   <i name="SYMPREC">      0.00001000</i>
  </separator>
  <separator name="dos" >
   <i type="int" name="LORBIT">     0</i>
   <v name="RWIGS">     -1.00000000     -1.00000000</v>
   <i type="int" name="NEDOS">   301</i>
   <i name="EMIN">     10.00000000</i>
   <i name="EMAX">    -10.00000000</i>
   <i name="EFERMI">      0.00000000</i>
  </separator>
  <separator name="writing" >
   <i type="int" name="NWRITE">     2</i>
   <i type="logical" name="LWAVE"> F  </i>
   <i type="logical" name="LDOWNSAMPLE"> F  </i>
   <i type="logical" name="LCHARG"> F  </i>
   <i type="logical" name="LPARD"> F  </i>
   <i type="logical" name="LVTOT"> F  </i>
   <i type="logical" name="LVHAR"> F  </i>
   <i type="logical" name="LELF"> F  </i>
   <i type="logical" name="LOPTICS"> F  </i>
   <v name="STM">      0.00000000      0.00000000      0.00000000      0.00000000      0.00000000      0.00000000      0.00000000</v>
  </separator>
  <separator name="performance" >
   <i type="int" name="NPAR">     8</i>
   <i type="int" name="NSIM">     4</i>
   <i type="int" name="NBLK">    -1</i>
   <i type="logical" name="LPLANE"> T  </i>
   <i type="logical" name="LSCALAPACK"> T  </i>
   <i type="logical" name="LSCAAWARE"> F  </i>
   <i type="logical" name="LSCALU"> F  </i>
   <i type="logical" name="LASYNC"> F  </i>
   <i type="logical" name="LORBITALREAL"> F  </i>
  </separator>
  <separator name="miscellaneous" >
   <i type="int" name="IDIOT">     3</i>
   <i type="int" name="PHON_NSTRUCT">    -1</i>
   <i type="logical" name="LMUSIC"> F  </i>
   <v name="POMASS">     12.01100000     28.08500000</v>
   <v name="DARWINR">      0.00000000      0.00000000</v>
   <v name="DARWINV">      1.00000000      1.00000000</v>
   <i type="logical" name="LCORR"> T  </i>
  </separator>
  <i type="logical" name="GGA_COMPAT"> T  </i>
  <i type="logical" name="LBERRY"> F  </i>
  <i type="int" name="ICORELEVEL">     0</i>
  <i type="logical" name="LDAU"> F  </i>
  <i type="int" name="I_CONSTRAINED_M">     0</i>
  <separator name="electronic exchange-correlation" >
   <i type="string" name="GGA">PE</i>
   <i type="int" name="VOSKOWN">     0</i>
   <i type="logical" name="LHFCALC"> F  </i>
   <i type="string" name="PRECFOCK"></i>
   <i type="logical" name="LSYMGRAD"> F  </i>
   <i type="logical" name="LHFONE"> F  </i>
   <i type="logical" name="LRHFCALC"> F  </i>
   <i type="logical" name="LTHOMAS"> F  </i>
   <i type="logical" name="LMODELHF"> F  </i>
   <i type="logical" name="LFOCKACE"> F  </i>
   <i name="ENCUT4O">     -1.00000000</i>
   <i type="int" name="EXXOEP">     0</i>
   <i type="int" name="FOURORBIT">     0</i>
   <i name="AEXX">      0.00000000</i>
   <i name="HFALPHA">      0.00000000</i>
   <i name="MCALPHA">      0.00000000</i>
   <i name="ALDAX">      1.00000000</i>
   <i name="AGGAX">      1.00000000</i>
   <i name="ALDAC">      1.00000000</i>
   <i name="AGGAC">      1.00000000</i>
   <i type="int" name="NKREDX">     1</i>
   <i type="int" name="NKREDY">     1</i>
   <i type="int" name="NKREDZ">     1</i>
   <i type="logical" name="SHIFTRED"> F  </i>
   <i type="logical" name="ODDONLY"> F  </i>
   <i type="logical" name="EVENONLY"> F  </i>
   <i type="int" name="LMAXFOCK">     0</i>
   <i type="int" name="NMAXFOCKAE">     0</i>
   <i type="logical" name="LFOCKAEDFT"> F  </i>
   <i name="HFSCREEN">      0.00000000</i>
   <i name="HFSCREENC">      0.00000000</i>
   <i type="int" name="NBANDSGWLOW">     0</i>
  </separator>
  <separator name="vdW DFT" >
   <i type="logical" name="LUSE_VDW"> F  </i>
   <i name="Zab_VDW">     -0.84910000</i>
   <i name="PARAM1">      0.12340000</i>
   <i name="PARAM2">      1.00000000</i>
   <i name="PARAM3">      0.00000000</i>
  </separator>
  <separator name="model GW" >
   <i type="int" name="MODEL_GW">     0</i>
   <i name="MODEL_EPS0">      6.26613487</i>
   <i name="MODEL_ALPHA">      1.00000000</i>
  </separator>
  <separator name="linear response parameters" >
   <i type="logical" name="LEPSILON"> F  </i>
   <i type="logical" name="LRPA"> F  </i>
   <i type="logical" name="LNABLA"> F  </i>
   <i type="logical" name="LVEL"> F  </i>
   <i type="int" name="KINTER">     0</i>
   <i name="CSHIFT">      0.10000000</i>
   <i name="OMEGAMAX">     -1.00000000</i>
   <i name="DEG_THRESHOLD">      0.00200000</i>
   <i name="RTIME">     -0.10000000</i>
   <i name="WPLASMAI">      0.00000000</i>
   <v name="DFIELD">      0.00000000      0.00000000      0.00000000</v>
   <v name="WPLASMA">      0.00000000      0.00000000      0.00000000      0.00000000      0.00000000      0.00000000      0.00000000      0.00000000      0.00000000</v>
  </separator>
  <separator name="orbital magnetization" >
   <i type="logical" name="NUCIND"> F  </i>
   <v name="MAGPOS">      0.00000000      0.00000000      0.00000000</v>
   <i type="logical" name="LNICSALL"> T  </i>
   <i type="logical" name="ORBITALMAG"> F  </i>
   <i type="logical" name="LMAGBLOCH"> F  </i>
   <i type="logical" name="LCHIMAG"> F  </i>
   <i type="logical" name="LGAUGE"> T  </i>
   <i type="int" name="MAGATOM">     0</i>
   <v name="MAGDIPOL">      0.00000000      0.00000000      0.00000000</v>
   <v name="AVECCONST">      0.00000000      0.00000000      0.00000000</v>
  </separator>
  <separator name="response functions" >
   <i type="logical" name="LFINITE_TEMPERATURE"> F  </i>
   <i type="logical" name="LADDER"> F  </i>
   <i type="logical" name="LRPAFORCE"> F  </i>
   <i type="logical" name="LFXC"> F  </i>
   <i type="logical" name="LHARTREE"> T  </i>
   <i type="int" name="IBSE">     0</i>
   <v type="int" name="KPOINT">    -1     0     0     0</v>
   <i type="logical" name="LTCTC"> F  </i>
   <i type="logical" name="LTCTE"> F  </i>
   <i type="logical" name="LTETE"> F  </i>
   <i type="logical" name="LTRIPLET"> F  </i>
   <i type="logical" name="LFXCEPS"> F  </i>
   <i type="logical" name="LFXHEG"> F  </i>
   <i type="int" name="NATURALO">     2</i>
   <i type="logical" name="LHOLEGF"> F  </i>
   <i type="logical" name="L2ORDER"> F  </i>
   <i type="logical" name="LDMP1"> F  </i>
   <i type="logical" name="LMP2LT"> F  </i>
   <i type="logical" name="LSMP2LT"> F  </i>
   <i type="logical" name="LGWLF"> F  </i>
   <i name="ENCUTGW">     -2.00000000</i>
   <i name="ENCUTGWSOFT">     -2.00000000</i>
   <i name="ENCUTLF">     -1.00000000</i>
   <i type="logical" name="LESF_SPLINES"> F  </i>
   <i type="int" name="LMAXMP2">    -1</i>
   <i name="SCISSOR">      0.00000000</i>
   <i type="int" name="NOMEGA">     0</i>
   <i type="int" name="NOMEGAR">     0</i>
   <i type="int" name="NBANDSGW">    -1</i>
   <i type="int" name="NBANDSO">    -1</i>
   <i type="int" name="NBANDSV">    -1</i>
   <i type="int" name="NELM">    60</i>
   <i type="int" name="NELMHF">     1</i>
   <i type="int" name="DIM">     3</i>
   <i type="int" name="IESPILON">     4</i>
   <i type="int" name="ANTIRES">     0</i>
   <i name="OMEGAMAX">    -30.00000000</i>
   <i name="OMEGAMIN">    -30.00000000</i>
   <i name="OMEGATL">   -200.00000000</i>
   <i type="int" name="OMEGAGRID">     0</i>
   <i name="CSHIFT">     -0.10000000</i>
   <i type="logical" name="LSELFENERGY"> F  </i>
   <i type="logical" name="LSPECTRAL"> F  </i>
   <i type="logical" name="LSPECTRALGW"> F  </i>
   <i type="logical" name="LSINGLES"> F  </i>
   <i type="logical" name="LFERMIGW"> F  </i>
   <i type="logical" name="ODDONLYGW"> F  </i>
   <i type="logical" name="EVENONLYGW"> F  </i>
   <i type="int" name="NKREDLFX">     1</i>
   <i type="int" name="NKREDLFY">     1</i>
   <i type="int" name="NKREDLFZ">     1</i>
   <i type="int" name="MAXMEM">  2800</i>
   <i type="int" name="TELESCOPE">     0</i>
   <i type="int" name="NTAUPAR">    -1</i>
   <i type="int" name="NOMEGAPAR">    -1</i>
   <i name="DAMP_NEWTON">      0.80000001</i>
   <i name="LAMBDA">      1.00000000</i>
  </separator>
  <separator name="External order field" >
   <i name="OFIELD_KAPPA">      0.00000000</i>
   <v name="OFIELD_K">      0.00000000      0.00000000      0.00000000</v>
   <i name="OFIELD_Q6_NEAR">      0.00000000</i>
   <i name="OFIELD_Q6_FAR">      0.00000000</i>
   <i name="OFIELD_A">      0.00000000</i>
  </separator>
 </parameters>
 <atominfo>
  <atoms>      64 </atoms>
  <types>       2 </types>
  <array name="atoms" >
   <dimension dim="1">ion</dimension>
   <field type="string">element</field>
   <field type="int">atomtype</field>
   <set>
    <rc><c>C </c><c>   1</c></rc>
    <rc><c>C </c><c>   1</c></rc>
    <rc><c>C </c><c>   1</c></rc>
    <rc><c>C </c><c>   1</c></rc>
    <rc><c>C </c><c>   1</c></rc>
    <rc><c>C </c><c>   1</c></rc>
    <rc><c>C </c><c>   1</c></rc>
    <rc><c>C </c><c>   1</c></rc>
    <rc><c>C </c><c>   1</c></rc>
    <rc><c>C </c><c>   1</c></rc>
    <rc><c>C </c><c>   1</c></rc>
    <rc><c>C </c><c>   1</c></rc>
    <rc><c>C </c><c>   1</c></rc>
    <rc><c>C </c><c>   1</c></rc>
    <rc><c>C </c><c>   1</c></rc>
    <rc><c>C </c><c>   1</c></rc>
    <rc><c>C </c><c>   1</c></rc>
    <rc><c>C </c><c>   1</c></rc>
    <rc><c>C </c><c>   1</c></rc>
    <rc><c>C </c><c>   1</c></rc>
    <rc><c>C </c><c>   1</c></rc>
    <rc><c>C </c><c>   1</c></rc>
    <rc><c>C </c><c>   1</c></rc>
    <rc><c>C </c><c>   1</c></rc>
    <rc><c>C </c><c>   1</c></rc>
    <rc><c>C </c><c>   1</c></rc>
    <rc><c>C </c><c>   1</c></rc>
    <rc><c>C </c><c>   1</c></rc>
    <rc><c>C </c><c>   1</c></rc>
    <rc><c>C </c><c>   1</c></rc>
    <rc><c>C </c><c>   1</c></rc>
    <rc><c>C </c><c>   1</c></rc>
    <rc><c>Si</c><c>   2</c></rc>
    <rc><c>Si</c><c>   2</c></rc>
    <rc><c>Si</c><c>   2</c></rc>
    <rc><c>Si</c><c>   2</c></rc>
    <rc><c>Si</c><c>   2</c></rc>
    <rc><c>Si</c><c>   2</c></rc>
    <rc><c>Si</c><c>   2</c></rc>
    <rc><c>Si</c><c>   2</c></rc>
    <rc><c>Si</c><c>   2</c></rc>
    <rc><c>Si</c><c>   2</c></rc>
    <rc><c>Si</c><c>   2</c></rc>
    <rc><c>Si</c><c>   2</c></rc>
    <rc><c>Si</c><c>   2</c></rc>
    <rc><c>Si</c><c>   2</c></rc>
    <rc><c>Si</c><c>   2</c></rc>
    <rc><c>Si</c><c>   2</c></rc>
    <rc><c>Si</c><c>   2</c></rc>
    <rc><c>Si</c><c>   2</c></rc>
    <rc><c>Si</c><c>   2</c></rc>
    <rc><c>Si</c><c>   2</c></rc>
    <rc><c>Si</c><c>   2</c></rc>
    <rc><c>Si</c><c>   2</c></rc>
    <rc><c>Si</c><c>   2</c></rc>
    <rc><c>Si</c><c>   2</c></rc>
    <rc><c>Si</c><c>   2</c></rc>
    <rc><c>Si</c><c>   2</c></rc>
    <rc><c>Si</c><c>   2</c></rc>
    <rc><c>Si</c><c>   2</c></rc>
    <rc><c>Si</c><c>   2</c></rc>
    <rc><c>Si</c><c>   2</c></rc>
    <rc><c>Si</c><c>   2</c></rc>
    <rc><c>Si</c><c>   2</c></rc>
   </set>
  </array>
  <array name="atomtypes" >
   <dimension dim="1">type</dimension>
   <field type="int">atomspertype</field>
   <field type="string">element</field>
   <field>mass</field>
   <field>valence</field>
   <field type="string">pseudopotential</field>
   <set>
    <rc><c>  32</c><c>C </c><c>     12.01100000</c><c>      4.00000000</c><c>  PAW_PBE C 08Apr2002                   </c></rc>
    <rc><c>  32</c><c>Si</c><c>     28.08500000</c><c>      4.00000000</c><c>  PAW_PBE Si 05Jan2001                  </c></rc>
   </set>
  </array>
 </atominfo>
 <structure name="initialpos" >
  <crystal>
   <varray name="basis" >
    <v>       8.74331558       0.00000000       0.00000000 </v>
    <v>       0.00000000       8.74331558       0.00000000 </v>
    <v>       0.00000000       0.00000000       8.74331558 </v>
   </varray>
   <i name="volume">    668.38771987 </i>
   <varray name="rec_basis" >
    <v>       0.11437309       0.00000000       0.00000000 </v>
    <v>       0.00000000       0.11437309       0.00000000 </v>
    <v>       0.00000000       0.00000000       0.11437309 </v>
   </varray>
  </crystal>
  <varray name="positions" >
   <v>       0.12676858       0.12309554       0.12725026 </v>
   <v>       0.12972846       0.37341967       0.37839374 </v>
   <v>       0.37449683       0.12598300       0.37597961 </v>
   <v>       0.37414369       0.37423531       0.12859837 </v>
   <v>       0.12904736       0.12798938       0.62721704 </v>
   <v>       0.12589384       0.36846811       0.87710751 </v>
   <v>       0.37290701       0.12878984       0.87526674 </v>
   <v>       0.37701380       0.37459048       0.62620271 </v>
   <v>       0.12488081       0.62496293       0.12445732 </v>
   <v>       0.12619108       0.87353020       0.38010454 </v>
   <v>       0.37384480       0.62890454       0.37169809 </v>
   <v>       0.36970326       0.87696002       0.12418132 </v>
   <v>       0.13083091       0.62490679       0.62454263 </v>
   <v>       0.12269387       0.87542817       0.87814442 </v>
   <v>       0.37408510       0.61763641       0.87103627 </v>
   <v>       0.37478628       0.87515982       0.62632095 </v>
   <v>       0.62909607       0.12473283       0.12413991 </v>
   <v>       0.62599309       0.37985716       0.36864261 </v>
   <v>       0.87165621       0.12223307       0.37013252 </v>
   <v>       0.87432049       0.37616799       0.12833341 </v>
   <v>       0.62791094       0.12402137       0.62667000 </v>
   <v>       0.62630917       0.37985174       0.87808584 </v>
   <v>       0.87556927       0.11953642       0.87026435 </v>
   <v>       0.87323962       0.37996979       0.62210561 </v>
   <v>       0.63066767       0.62446739       0.12727535 </v>
   <v>       0.62659253       0.87556547       0.38153750 </v>
   <v>       0.87230300       0.62032832       0.37436352 </v>
   <v>       0.88004821       0.87161784       0.12327156 </v>
   <v>       0.62487135       0.62414076       0.62388518 </v>
   <v>       0.62177985       0.87063509       0.86757724 </v>
   <v>       0.87631817       0.62157650       0.87728282 </v>
   <v>       0.87233360       0.87743573       0.62114687 </v>
   <v>       0.99791652       0.99853223       0.00018295 </v>
   <v>       0.99726969       0.25712859       0.25125446 </v>
   <v>       0.25578115       0.99859149       0.25100149 </v>
   <v>       0.24570075       0.24832703       0.99650671 </v>
   <v>       0.99904120       0.00092042       0.50041152 </v>
   <v>       0.00345558       0.24605620       0.74907373 </v>
   <v>       0.25001951       0.99625717       0.75062608 </v>
   <v>       0.26074088       0.24938276       0.49925510 </v>
   <v>       0.00445363       0.49608799       0.00105076 </v>
   <v>       0.99565120       0.74793240       0.24396736 </v>
   <v>       0.24862036       0.49819791       0.25022773 </v>
   <v>       0.25259531       0.75154602       0.00016124 </v>
   <v>       0.00003707       0.49685223       0.49737735 </v>
   <v>       0.99907313       0.74869322       0.74752351 </v>
   <v>       0.24873335       0.50064057       0.74768331 </v>
   <v>       0.25548384       0.74719201       0.49691920 </v>
   <v>       0.50149510       0.99786995       0.99614088 </v>
   <v>       0.49594079       0.24621846       0.25060113 </v>
   <v>       0.75152944       0.99686541       0.24915026 </v>
   <v>       0.74771216       0.24595285       0.99595439 </v>
   <v>       0.50279044       0.99963476       0.50225273 </v>
   <v>       0.50243643       0.24661545       0.73930894 </v>
   <v>       0.74794778       0.99986658       0.75151994 </v>
   <v>       0.75185696       0.25388828       0.50664485 </v>
   <v>       0.49775041       0.49732151       0.99997392 </v>
   <v>       0.49632542       0.75097906       0.24650041 </v>
   <v>       0.74986979       0.50257072       0.24893061 </v>
   <v>       0.75129065       0.75059305       0.00041450 </v>
   <v>       0.49984477       0.49983087       0.50237045 </v>
   <v>       0.49648042       0.74716562       0.74831561 </v>
   <v>       0.75231740       0.50433622       0.74497828 </v>
   <v>       0.75602007       0.74913163       0.49844408 </v>
  </varray>
 </structure>
 <calculation>
  <scstep>
   <time name="dav">   24.14   24.21</time>
   <time name="total">   24.27   24.34</time>
   <energy>
    <i name="alphaZ">    354.85177120 </i>
    <i name="ewald">  -9078.74707579 </i>
    <i name="hartreedc">   -673.09770988 </i>
    <i name="XCdc">    145.86953324 </i>
    <i name="pawpsdc">   6292.66707184 </i>
    <i name="pawaedc">  -5747.90303932 </i>
    <i name="eentropy">      0.00491474 </i>
    <i name="bandstr">   1370.02808162 </i>
    <i name="atom">   8006.17504320 </i>
    <i name="e_fr_energy">    669.84859085 </i>
    <i name="e_wo_entrp">    669.84367612 </i>
    <i name="e_0_energy">    669.84695261 </i>
   </energy>
  </scstep>
  <scstep>
   <time name="dav">   16.71   16.78</time>
   <time name="total">   16.72   16.79</time>
   <energy>
    <i name="e_fr_energy">   -461.95216408 </i>
    <i name="e_wo_entrp">   -461.96865139 </i>
    <i name="e_0_energy">   -461.95765985 </i>
   </energy>
  </scstep>
  <scstep>
   <time name="dav">   16.38   16.44</time>
   <time name="total">   16.39   16.45</time>
   <energy>
    <i name="e_fr_energy">   -537.06829502 </i>
    <i name="e_wo_entrp">   -537.09016405 </i>
    <i name="e_0_energy">   -537.07558470 </i>
   </energy>
  </scstep>
  <scstep>
   <time name="dav">   20.03   20.42</time>
   <time name="total">   20.04   20.43</time>
   <energy>
    <i name="e_fr_energy">   -538.73471844 </i>
    <i name="e_wo_entrp">   -538.75702677 </i>
    <i name="e_0_energy">   -538.74215455 </i>
   </energy>
  </scstep>
  <scstep>
   <time name="dav">   15.31   15.34</time>
   <time name="total">   15.54   15.57</time>
   <energy>
    <i name="e_fr_energy">   -538.77904631 </i>
    <i name="e_wo_entrp">   -538.80133784 </i>
    <i name="e_0_energy">   -538.78647682 </i>
   </energy>
  </scstep>
  <scstep>
   <time name="dav">   15.95   15.98</time>
   <time name="total">   16.62   16.72</time>
   <energy>
    <i name="e_fr_energy">   -481.90500106 </i>
    <i name="e_wo_entrp">   -481.91702738 </i>
    <i name="e_0_energy">   -481.90900983 </i>
   </energy>
  </scstep>
  <scstep>
   <time name="dav">   16.09   16.12</time>
   <time name="total">   16.68   16.71</time>
   <energy>
    <i name="e_fr_energy">   -480.56352205 </i>
    <i name="e_wo_entrp">   -480.57422351 </i>
    <i name="e_0_energy">   -480.56708920 </i>
   </energy>
  </scstep>
  <scstep>
   <time name="dav">   14.92   14.97</time>
   <time name="total">   15.49   15.58</time>
   <energy>
    <i name="e_fr_energy">   -480.33371300 </i>
    <i name="e_wo_entrp">   -480.34459523 </i>
    <i name="e_0_energy">   -480.33734041 </i>
   </energy>
  </scstep>
  <scstep>
   <time name="dav">   14.97   15.02</time>
   <time name="total">   15.34   15.39</time>
   <energy>
    <i name="e_fr_energy">   -480.31722336 </i>
    <i name="e_wo_entrp">   -480.32801739 </i>
    <i name="e_0_energy">   -480.32082137 </i>
   </energy>
  </scstep>
  <scstep>
   <time name="dav">   15.61   15.64</time>
   <time name="total">   16.11   16.16</time>
   <energy>
    <i name="e_fr_energy">   -480.32026332 </i>
    <i name="e_wo_entrp">   -480.33105920 </i>
    <i name="e_0_energy">   -480.32386194 </i>
   </energy>
  </scstep>
  <scstep>
   <time name="dav">   15.87   15.90</time>
   <time name="total">   16.26   16.29</time>
   <energy>
    <i name="e_fr_energy">   -480.32127901 </i>
    <i name="e_wo_entrp">   -480.33206463 </i>
    <i name="e_0_energy">   -480.32487422 </i>
   </energy>
  </scstep>
  <scstep>
   <time name="dav">   32.89   32.92</time>
   <time name="total">   33.50   33.70</time>
   <energy>
    <i name="e_fr_energy">   -480.32135269 </i>
    <i name="e_wo_entrp">   -480.33213724 </i>
    <i name="e_0_energy">   -480.32494754 </i>
   </energy>
  </scstep>
  <scstep>
   <time name="dav">   29.10   29.14</time>
   <time name="total">   29.71   29.82</time>
   <energy>
    <i name="e_fr_energy">   -480.32136706 </i>
    <i name="e_wo_entrp">   -480.33215532 </i>
    <i name="e_0_energy">   -480.32496315 </i>
   </energy>
  </scstep>
  <scstep>
   <time name="dav">   15.98   16.01</time>
   <time name="total">   16.38   16.45</time>
   <energy>
    <i name="e_fr_energy">   -480.32137230 </i>
    <i name="e_wo_entrp">   -480.33215954 </i>
    <i name="e_0_energy">   -480.32496805 </i>
   </energy>
  </scstep>
  <scstep>
   <time name="dav">   16.37   16.40</time>
   <time name="total">   16.76   16.79</time>
   <energy>
    <i name="e_fr_energy">   -480.32137413 </i>
    <i name="e_wo_entrp">   -480.33216087 </i>
    <i name="e_0_energy">   -480.32496971 </i>
   </energy>
  </scstep>
  <scstep>
   <time name="dav">   16.66   16.74</time>
   <time name="total">   17.07   17.20</time>
   <energy>
    <i name="e_fr_energy">   -480.32137393 </i>
    <i name="e_wo_entrp">   -480.33216104 </i>
    <i name="e_0_energy">   -480.32496964 </i>
   </energy>
  </scstep>
  <scstep>
   <time name="dav">   14.94   15.00</time>
   <time name="total">   15.33   15.38</time>
   <energy>
    <i name="e_fr_energy">   -480.32137426 </i>
    <i name="e_wo_entrp">   -480.33216134 </i>
    <i name="e_0_energy">   -480.32496995 </i>
   </energy>
  </scstep>
  <scstep>
   <time name="dav">   12.92   12.94</time>
   <time name="total">   13.63   13.68</time>
   <energy>
    <i name="e_fr_energy">   -480.32137428 </i>
    <i name="e_wo_entrp">   -480.33216131 </i>
    <i name="e_0_energy">   -480.32496996 </i>
   </energy>
  </scstep>
  <scstep>
   <time name="dav">    9.82    9.83</time>
   <time name="total">   10.18   10.20</time>
   <energy>
    <i name="e_fr_energy">   -480.32137426 </i>
    <i name="e_wo_entrp">   -480.33216126 </i>
    <i name="e_0_energy">   -480.32496993 </i>
   </energy>
  </scstep>
  <scstep>
   <time name="dav">    9.97    9.98</time>
   <time name="total">   10.03   10.05</time>
   <energy>
    <i name="alphaZ">    354.85177120 </i>
    <i name="ewald">  -9078.74707579 </i>
    <i name="hartreedc">  -1025.93535077 </i>
    <i name="XCdc">    179.30240703 </i>
    <i name="pawpsdc">  33112.90932409 </i>
    <i name="pawaedc"> -32573.86753777 </i>
    <i name="eentropy">      0.01078702 </i>
    <i name="bandstr">    544.97925752 </i>
    <i name="atom">   8006.17504320 </i>
    <i name="e_fr_energy">   -480.32137427 </i>
    <i name="e_wo_entrp">   -480.33216129 </i>
    <i name="e_0_energy">   -480.32496994 </i>
   </energy>
  </scstep>
  <structure>
   <crystal>
    <varray name="basis" >
     <v>       8.74331558       0.00000000       0.00000000 </v>
     <v>       0.00000000       8.74331558       0.00000000 </v>
     <v>       0.00000000       0.00000000       8.74331558 </v>
    </varray>
    <i name="volume">    668.38771987 </i>
    <varray name="rec_basis" >
     <v>       0.11437309       0.00000000       0.00000000 </v>
     <v>       0.00000000       0.11437309       0.00000000 </v>
     <v>       0.00000000       0.00000000       0.11437309 </v>
    </varray>
   </crystal>
   <varray name="positions" >
    <v>       0.12676858       0.12309554       0.12725026 </v>
    <v>       0.12972846       0.37341967       0.37839374 </v>
    <v>       0.37449683       0.12598300       0.37597961 </v>
    <v>       0.37414369       0.37423531       0.12859837 </v>
    <v>       0.12904736       0.12798938       0.62721704 </v>
    <v>       0.12589384       0.36846811       0.87710751 </v>
    <v>       0.37290701       0.12878984       0.87526674 </v>
    <v>       0.37701380       0.37459048       0.62620271 </v>
    <v>       0.12488081       0.62496293       0.12445732 </v>
    <v>       0.12619108       0.87353020       0.38010454 </v>
    <v>       0.37384480       0.62890454       0.37169809 </v>
    <v>       0.36970326       0.87696002       0.12418132 </v>
    <v>       0.13083091       0.62490679       0.62454263 </v>
    <v>       0.12269387       0.87542817       0.87814442 </v>
    <v>       0.37408510       0.61763641       0.87103627 </v>
    <v>       0.37478628       0.87515982       0.62632095 </v>
    <v>       0.62909607       0.12473283       0.12413991 </v>
    <v>       0.62599309       0.37985716       0.36864261 </v>
    <v>       0.87165621       0.12223307       0.37013252 </v>
    <v>       0.87432049       0.37616799       0.12833341 </v>
    <v>       0.62791094       0.12402137       0.62667000 </v>
    <v>       0.62630917       0.37985174       0.87808584 </v>
    <v>       0.87556927       0.11953642       0.87026435 </v>
    <v>       0.87323962       0.37996979       0.62210561 </v>
    <v>       0.63066767       0.62446739       0.12727535 </v>
    <v>       0.62659253       0.87556547       0.38153750 </v>
    <v>       0.87230300       0.62032832       0.37436352 </v>
    <v>       0.88004821       0.87161784       0.12327156 </v>
    <v>       0.62487135       0.62414076       0.62388518 </v>
    <v>       0.62177985       0.87063509       0.86757724 </v>
    <v>       0.87631817       0.62157650       0.87728282 </v>
    <v>       0.87233360       0.87743573       0.62114687 </v>
    <v>       0.99791652       0.99853223       0.00018295 </v>
    <v>       0.99726969       0.25712859       0.25125446 </v>
    <v>       0.25578115       0.99859149       0.25100149 </v>
    <v>       0.24570075       0.24832703       0.99650671 </v>
    <v>       0.99904120       0.00092042       0.50041152 </v>
    <v>       0.00345558       0.24605620       0.74907373 </v>
    <v>       0.25001951       0.99625717       0.75062608 </v>
    <v>       0.26074088       0.24938276       0.49925510 </v>
    <v>       0.00445363       0.49608799       0.00105076 </v>
    <v>       0.99565120       0.74793240       0.24396736 </v>
    <v>       0.24862036       0.49819791       0.25022773 </v>
    <v>       0.25259531       0.75154602       0.00016124 </v>
    <v>       0.00003707       0.49685223       0.49737735 </v>
    <v>       0.99907313       0.74869322       0.74752351 </v>
    <v>       0.24873335       0.50064057       0.74768331 </v>
    <v>       0.25548384       0.74719201       0.49691920 </v>
    <v>       0.50149510       0.99786995       0.99614088 </v>
    <v>       0.49594079       0.24621846       0.25060113 </v>
    <v>       0.75152944       0.99686541       0.24915026 </v>
    <v>       0.74771216       0.24595285       0.99595439 </v>
    <v>       0.50279044       0.99963476       0.50225273 </v>
    <v>       0.50243643       0.24661545       0.73930894 </v>
    <v>       0.74794778       0.99986658       0.75151994 </v>
    <v>       0.75185696       0.25388828       0.50664485 </v>
    <v>       0.49775041       0.49732151       0.99997392 </v>
    <v>       0.49632542       0.75097906       0.24650041 </v>
    <v>       0.74986979       0.50257072       0.24893061 </v>
    <v>       0.75129065       0.75059305       0.00041450 </v>
    <v>       0.49984477       0.49983087       0.50237045 </v>
    <v>       0.49648042       0.74716562       0.74831561 </v>
    <v>       0.75231740       0.50433622       0.74497828 </v>
    <v>       0.75602007       0.74913163       0.49844408 </v>
   </varray>
  </structure>
  <varray name="forces" >
   <v>      -0.58350661       0.37220417      -0.15784912 </v>
   <v>      -0.43576096       0.04270673      -0.22449362 </v>
   <v>       1.04920587      -0.97300363       0.00666113 </v>
   <v>      -0.32436046      -0.24192943      -0.79197967 </v>
   <v>      -0.05640741      -0.65534956      -0.83870618 </v>
   <v>      -0.51228321       1.21499356      -0.95188415 </v>
   <v>       0.81506810      -0.92600008      -0.72713619 </v>
   <v>       0.00485358       0.23021577      -0.56353418 </v>
   <v>       0.35839307      -0.23349203      -0.10105399 </v>
   <v>      -0.16967061      -0.03702500      -1.05118745 </v>
   <v>       0.45104437      -1.10644251       0.21627066 </v>
   <v>       1.65160023      -0.32051999      -0.34476393 </v>
   <v>      -1.08753510      -0.13724515      -0.38344222 </v>
   <v>       0.35930919      -0.43653352      -0.73426608 </v>
   <v>       0.05607318       1.27830722       0.91266673 </v>
   <v>       0.20388613      -0.18510580      -0.33386033 </v>
   <v>      -0.94727119      -0.84356816      -0.05612579 </v>
   <v>      -0.66016562      -1.17112332       1.42814366 </v>
   <v>       0.70383605       0.98393743       1.24771555 </v>
   <v>       0.02417963      -0.08875231      -1.03931300 </v>
   <v>      -0.05942224       0.12416930      -0.55056551 </v>
   <v>       0.05231666      -1.11035334      -1.39144187 </v>
   <v>      -0.16584871       0.67336376       0.69344904 </v>
   <v>       0.99590318      -0.86848117       0.88196764 </v>
   <v>      -1.52934025       0.79569689      -0.84113422 </v>
   <v>      -0.26128416      -0.33360119      -1.49177667 </v>
   <v>       0.95493692       0.76946040      -0.15436736 </v>
   <v>      -1.46382035       0.68174420      -0.10681433 </v>
   <v>       0.13913718       0.53795373      -0.13045483 </v>
   <v>       0.46441108       0.31073133       1.30033876 </v>
   <v>       0.24500863       0.49780618      -0.64684526 </v>
   <v>       0.53470280      -0.41839879       0.89407009 </v>
   <v>       0.88075655       0.42789416       0.24292949 </v>
   <v>       0.69367828      -1.69111195       0.08061283 </v>
   <v>      -1.95272060       0.30964243       0.42019635 </v>
   <v>       1.01884890      -0.29455577       1.35135891 </v>
   <v>       0.51428633       0.32406956      -0.42828397 </v>
   <v>      -0.58744948       0.70756097      -0.04504559 </v>
   <v>      -0.22148194       0.73120272       0.34808395 </v>
   <v>      -1.95434689       0.22027831       0.55802361 </v>
   <v>      -0.76681821       0.21343608      -0.09361174 </v>
   <v>       1.36756999      -0.19825232       1.65434030 </v>
   <v>       0.20435461       0.46271959       0.05247402 </v>
   <v>      -0.90929846      -0.77486435      -0.48451137 </v>
   <v>       0.71177563       0.69224649       0.24937227 </v>
   <v>       0.26161782       0.20644075       0.42963637 </v>
   <v>      -0.07898476      -1.05382469       0.46712768 </v>
   <v>      -1.00398089       0.78402959       0.49349037 </v>
   <v>      -0.37685019       0.68348649       0.19945304 </v>
   <v>       1.33954883       0.88040707      -0.36749315 </v>
   <v>      -0.30147660       0.13279816       0.11547071 </v>
   <v>       0.68120940       1.03221817       0.40653917 </v>
   <v>      -0.22095330      -0.06651633      -0.09908015 </v>
   <v>      -0.32497256       0.94635117       2.75168437 </v>
   <v>       0.27302457      -0.73402590      -0.66100292 </v>
   <v>      -0.49953418      -0.59591675      -2.23494915 </v>
   <v>       0.56689096       0.15954302       0.43307444 </v>
   <v>       1.13113068      -0.00357270       0.61594134 </v>
   <v>      -0.01395119      -0.73523631       0.00669765 </v>
   <v>      -0.15562394      -0.56076058      -0.53788583 </v>
   <v>       0.32158948       0.29192731      -1.24656757 </v>
   <v>       0.38460344      -0.33103377      -0.26748165 </v>
   <v>      -0.56086472      -0.44525522       1.43458462 </v>
   <v>      -1.22876653      -0.14769106       0.18653427 </v>
  </varray>
  <varray name="stress" >
   <v>       5.80047156      -6.10779147      -0.42464592 </v>
   <v>      -6.10779148       6.64192070       1.27962388 </v>
   <v>      -0.42464593       1.27962381       5.77758633 </v>
  </varray>
  <energy>
   <i name="e_fr_energy">   -480.32137427 </i>
   <i name="e_wo_entrp">   -480.33216129 </i>
   <i name="e_0_energy">   -480.32496994 </i>
  </energy>
  <time name="totalsc">  364.47  366.16</time>
  <eigenvalues>
   <array>
    <dimension dim="1">band</dimension>
    <dimension dim="2">kpoint</dimension>
    <dimension dim="3">spin</dimension>
    <field>eigene</field>
    <field>occ</field>
    <set>
     <set comment="spin 1">
      <set comment="kpoint 1">
       <r>   -7.3548    1.0000 </r>
       <r>   -5.9029    1.0000 </r>
       <r>   -5.8571    1.0000 </r>
       <r>   -5.8328    1.0000 </r>
       <r>   -5.7361    1.0000 </r>
       <r>   -5.7198    1.0000 </r>
       <r>   -5.5914    1.0000 </r>
       <r>   -4.6243    1.0000 </r>
       <r>   -4.4943    1.0000 </r>
       <r>   -4.4856    1.0000 </r>
       <r>   -4.4451    1.0000 </r>
       <r>   -4.4138    1.0000 </r>
       <r>   -4.3836    1.0000 </r>
       <r>   -4.3382    1.0000 </r>
       <r>   -4.3015    1.0000 </r>
       <r>   -4.2453    1.0000 </r>
       <r>   -4.2168    1.0000 </r>
       <r>   -4.1998    1.0000 </r>
       <r>   -4.0427    1.0000 </r>
       <r>   -3.9313    1.0000 </r>
       <r>   -3.8292    1.0000 </r>
       <r>   -3.7501    1.0000 </r>
       <r>   -3.6711    1.0000 </r>
       <r>   -2.4586    1.0000 </r>
       <r>   -2.3873    1.0000 </r>
       <r>   -2.2970    1.0000 </r>
       <r>   -2.2484    1.0000 </r>
       <r>   -2.2113    1.0000 </r>
       <r>   -2.1258    1.0000 </r>
       <r>   -2.1170    1.0000 </r>
       <r>   -2.0470    1.0000 </r>
       <r>   -1.9427    1.0000 </r>
       <r>   -0.5985    1.0000 </r>
       <r>   -0.5297    1.0000 </r>
       <r>   -0.4661    1.0000 </r>
       <r>   -0.3959    1.0000 </r>
       <r>    0.1974    1.0000 </r>
       <r>    0.2314    1.0000 </r>
       <r>    0.2546    1.0000 </r>
       <r>    0.9083    1.0000 </r>
       <r>    0.9485    1.0000 </r>
       <r>    0.9614    1.0000 </r>
       <r>    0.9820    1.0000 </r>
       <r>    1.0173    1.0000 </r>
       <r>    1.0569    1.0000 </r>
       <r>    1.9023    1.0000 </r>
       <r>    1.9533    1.0000 </r>
       <r>    1.9746    1.0000 </r>
       <r>    1.9873    1.0000 </r>
       <r>    1.9975    1.0000 </r>
       <r>    2.0295    1.0000 </r>
       <r>    2.0778    1.0000 </r>
       <r>    2.1044    1.0000 </r>
       <r>    2.1303    1.0000 </r>
       <r>    2.1710    1.0000 </r>
       <r>    2.1839    1.0000 </r>
       <r>    2.2961    1.0000 </r>
       <r>    2.9309    1.0000 </r>
       <r>    2.9880    1.0000 </r>
       <r>    3.0004    1.0000 </r>
       <r>    3.0620    1.0000 </r>
       <r>    3.1003    1.0000 </r>
       <r>    3.1181    1.0000 </r>
       <r>    3.2772    1.0000 </r>
       <r>    3.2806    1.0000 </r>
       <r>    3.3223    1.0000 </r>
       <r>    3.3441    1.0000 </r>
       <r>    3.3648    1.0000 </r>
       <r>    3.4030    1.0000 </r>
       <r>    3.5538    1.0000 </r>
       <r>    3.5795    1.0000 </r>
       <r>    3.6004    1.0000 </r>
       <r>    3.6182    1.0000 </r>
       <r>    3.6488    1.0000 </r>
       <r>    3.6647    1.0000 </r>
       <r>    3.7017    1.0000 </r>
       <r>    3.7606    1.0000 </r>
       <r>    3.7699    1.0000 </r>
       <r>    3.7879    1.0000 </r>
       <r>    3.8334    1.0000 </r>
       <r>    3.8518    1.0000 </r>
       <r>    4.5265    1.0000 </r>
       <r>    4.5912    1.0000 </r>
       <r>    4.6229    1.0000 </r>
       <r>    4.6791    1.0000 </r>
       <r>    4.6835    1.0000 </r>
       <r>    4.7444    1.0000 </r>
       <r>    4.7965    1.0000 </r>
       <r>    4.8077    1.0000 </r>
       <r>    4.8459    1.0000 </r>
       <r>    4.8631    1.0000 </r>
       <r>    4.8727    1.0000 </r>
       <r>    4.9230    1.0000 </r>
       <r>    5.8763    1.0000 </r>
       <r>    5.9166    1.0000 </r>
       <r>    5.9521    1.0000 </r>
       <r>    6.0047    1.0000 </r>
       <r>    6.0407    1.0000 </r>
       <r>    6.0549    1.0000 </r>
       <r>    6.0775    1.0000 </r>
       <r>    6.1005    1.0000 </r>
       <r>    6.1127    1.0000 </r>
       <r>    6.1891    1.0000 </r>
       <r>    6.1980    1.0000 </r>
       <r>    6.2902    1.0000 </r>
       <r>    6.6273    1.0000 </r>
       <r>    6.6587    1.0000 </r>
       <r>    6.6960    1.0000 </r>
       <r>    6.7432    1.0000 </r>
       <r>    6.7651    1.0000 </r>
       <r>    6.7702    1.0000 </r>
       <r>    6.8303    1.0000 </r>
       <r>    6.8468    1.0000 </r>
       <r>    6.8766    1.0000 </r>
       <r>    6.8864    1.0000 </r>
       <r>    6.9098    1.0000 </r>
       <r>    6.9358    1.0000 </r>
       <r>    6.9435    1.0000 </r>
       <r>    6.9598    1.0000 </r>
       <r>    7.0035    1.0000 </r>
       <r>    7.0185    1.0000 </r>
       <r>    7.0423    1.0000 </r>
       <r>    7.0936    1.0000 </r>
       <r>    7.1105    1.0000 </r>
       <r>    7.1749    1.0000 </r>
       <r>    7.9932    1.0208 </r>
       <r>    8.0336    0.9792 </r>
       <r>    8.1107    0.7936 </r>
       <r>    9.2385   -0.0000 </r>
       <r>    9.3478   -0.0000 </r>
       <r>    9.4738   -0.0000 </r>
       <r>   11.8868   -0.0000 </r>
       <r>   11.9518   -0.0000 </r>
       <r>   11.9755   -0.0000 </r>
       <r>   11.9880   -0.0000 </r>
       <r>   12.0547   -0.0000 </r>
       <r>   12.0963   -0.0000 </r>
       <r>   12.2134   -0.0000 </r>
       <r>   12.2510   -0.0000 </r>
       <r>   12.3176   -0.0000 </r>
       <r>   12.9838   -0.0000 </r>
       <r>   13.0235   -0.0000 </r>
       <r>   13.0859   -0.0000 </r>
       <r>   13.1634   -0.0000 </r>
       <r>   13.1696   -0.0000 </r>
       <r>   13.2360   -0.0000 </r>
       <r>   13.2550   -0.0000 </r>
       <r>   13.2987   -0.0000 </r>
       <r>   13.3048   -0.0000 </r>
       <r>   13.3134   -0.0000 </r>
       <r>   13.3398   -0.0000 </r>
       <r>   13.3549   -0.0000 </r>
       <r>   13.4139   -0.0000 </r>
       <r>   13.4343   -0.0000 </r>
       <r>   13.4624   -0.0000 </r>
       <r>   13.4864   -0.0000 </r>
       <r>   13.5337   -0.0000 </r>
       <r>   13.5650   -0.0000 </r>
       <r>   13.5688   -0.0000 </r>
       <r>   13.5909   -0.0000 </r>
       <r>   13.6354   -0.0000 </r>
       <r>   13.7129    0.0000 </r>
       <r>   14.0908    0.0000 </r>
       <r>   14.1639    0.0000 </r>
       <r>   14.2263    0.0000 </r>
       <r>   14.2836    0.0000 </r>
       <r>   14.3133    0.0000 </r>
       <r>   14.3400    0.0000 </r>
      </set>
      <set comment="kpoint 2">
       <r>   -7.1771    1.0000 </r>
       <r>   -6.6466    1.0000 </r>
       <r>   -5.7162    1.0000 </r>
       <r>   -5.6560    1.0000 </r>
       <r>   -5.5777    1.0000 </r>
       <r>   -5.5177    1.0000 </r>
       <r>   -5.2346    1.0000 </r>
       <r>   -5.1520    1.0000 </r>
       <r>   -5.0444    1.0000 </r>
       <r>   -5.0307    1.0000 </r>
       <r>   -4.6077    1.0000 </r>
       <r>   -4.3593    1.0000 </r>
       <r>   -4.2854    1.0000 </r>
       <r>   -4.2100    1.0000 </r>
       <r>   -4.1603    1.0000 </r>
       <r>   -4.0857    1.0000 </r>
       <r>   -3.9934    1.0000 </r>
       <r>   -3.9141    1.0000 </r>
       <r>   -3.8605    1.0000 </r>
       <r>   -3.4945    1.0000 </r>
       <r>   -3.4314    1.0000 </r>
       <r>   -3.3301    1.0000 </r>
       <r>   -3.3043    1.0000 </r>
       <r>   -3.1971    1.0000 </r>
       <r>   -2.6464    1.0000 </r>
       <r>   -2.5378    1.0000 </r>
       <r>   -2.4649    1.0000 </r>
       <r>   -2.4371    1.0000 </r>
       <r>   -2.3599    1.0000 </r>
       <r>   -2.2420    1.0000 </r>
       <r>   -2.2106    1.0000 </r>
       <r>   -2.0767    1.0000 </r>
       <r>   -0.1375    1.0000 </r>
       <r>   -0.0720    1.0000 </r>
       <r>   -0.0132    1.0000 </r>
       <r>    0.0641    1.0000 </r>
       <r>    0.3388    1.0000 </r>
       <r>    0.3969    1.0000 </r>
       <r>    0.6749    1.0000 </r>
       <r>    0.7383    1.0000 </r>
       <r>    0.9578    1.0000 </r>
       <r>    0.9779    1.0000 </r>
       <r>    1.0169    1.0000 </r>
       <r>    1.0417    1.0000 </r>
       <r>    1.0864    1.0000 </r>
       <r>    1.1127    1.0000 </r>
       <r>    1.1597    1.0000 </r>
       <r>    1.1920    1.0000 </r>
       <r>    1.2387    1.0000 </r>
       <r>    1.3413    1.0000 </r>
       <r>    1.3846    1.0000 </r>
       <r>    1.4376    1.0000 </r>
       <r>    1.5217    1.0000 </r>
       <r>    2.6122    1.0000 </r>
       <r>    2.6592    1.0000 </r>
       <r>    2.7144    1.0000 </r>
       <r>    2.7272    1.0000 </r>
       <r>    2.8579    1.0000 </r>
       <r>    2.8943    1.0000 </r>
       <r>    2.9267    1.0000 </r>
       <r>    2.9511    1.0000 </r>
       <r>    2.9896    1.0000 </r>
       <r>    3.0119    1.0000 </r>
       <r>    3.0459    1.0000 </r>
       <r>    3.0862    1.0000 </r>
       <r>    3.1424    1.0000 </r>
       <r>    3.5066    1.0000 </r>
       <r>    3.5141    1.0000 </r>
       <r>    3.6438    1.0000 </r>
       <r>    3.6560    1.0000 </r>
       <r>    3.9453    1.0000 </r>
       <r>    3.9929    1.0000 </r>
       <r>    4.0497    1.0000 </r>
       <r>    4.1019    1.0000 </r>
       <r>    4.3055    1.0000 </r>
       <r>    4.3403    1.0000 </r>
       <r>    4.3569    1.0000 </r>
       <r>    4.3765    1.0000 </r>
       <r>    4.3950    1.0000 </r>
       <r>    4.4335    1.0000 </r>
       <r>    4.4458    1.0000 </r>
       <r>    4.5220    1.0000 </r>
       <r>    4.5805    1.0000 </r>
       <r>    4.6431    1.0000 </r>
       <r>    4.6614    1.0000 </r>
       <r>    4.6982    1.0000 </r>
       <r>    4.7694    1.0000 </r>
       <r>    4.8045    1.0000 </r>
       <r>    4.8605    1.0000 </r>
       <r>    4.9017    1.0000 </r>
       <r>    4.9877    1.0000 </r>
       <r>    5.0307    1.0000 </r>
       <r>    5.3688    1.0000 </r>
       <r>    5.4017    1.0000 </r>
       <r>    5.5712    1.0000 </r>
       <r>    5.5998    1.0000 </r>
       <r>    5.6170    1.0000 </r>
       <r>    5.6482    1.0000 </r>
       <r>    5.8285    1.0000 </r>
       <r>    5.8730    1.0000 </r>
       <r>    5.9180    1.0000 </r>
       <r>    5.9596    1.0000 </r>
       <r>    6.1417    1.0000 </r>
       <r>    6.2259    1.0000 </r>
       <r>    6.2540    1.0000 </r>
       <r>    6.2957    1.0000 </r>
       <r>    6.3376    1.0000 </r>
       <r>    6.4113    1.0000 </r>
       <r>    6.4647    1.0000 </r>
       <r>    6.5246    1.0000 </r>
       <r>    6.5758    1.0000 </r>
       <r>    6.6902    1.0000 </r>
       <r>    6.7512    1.0000 </r>
       <r>    6.8038    1.0000 </r>
       <r>    6.8326    1.0000 </r>
       <r>    6.8585    1.0000 </r>
       <r>    6.8916    1.0000 </r>
       <r>    6.9046    1.0000 </r>
       <r>    6.9572    1.0000 </r>
       <r>    6.9672    1.0000 </r>
       <r>    6.9952    1.0000 </r>
       <r>    7.0163    1.0000 </r>
       <r>    7.0551    1.0000 </r>
       <r>    7.0848    1.0000 </r>
       <r>    7.1257    1.0000 </r>
       <r>    7.5034    1.0000 </r>
       <r>    7.6965    1.0015 </r>
       <r>    7.7330    1.0031 </r>
       <r>    9.6632   -0.0000 </r>
       <r>   10.1116   -0.0000 </r>
       <r>   10.2798   -0.0000 </r>
       <r>   10.6089   -0.0000 </r>
       <r>   11.8753   -0.0000 </r>
       <r>   12.0121   -0.0000 </r>
       <r>   12.4490   -0.0000 </r>
       <r>   12.5238   -0.0000 </r>
       <r>   12.5831   -0.0000 </r>
       <r>   12.6249   -0.0000 </r>
       <r>   12.6911   -0.0000 </r>
       <r>   12.8569   -0.0000 </r>
       <r>   12.9223   -0.0000 </r>
       <r>   12.9485   -0.0000 </r>
       <r>   12.9795   -0.0000 </r>
       <r>   12.9884   -0.0000 </r>
       <r>   13.0195   -0.0000 </r>
       <r>   13.0704   -0.0000 </r>
       <r>   13.1075   -0.0000 </r>
       <r>   13.1381   -0.0000 </r>
       <r>   13.1649   -0.0000 </r>
       <r>   13.2284   -0.0000 </r>
       <r>   13.4752   -0.0000 </r>
       <r>   13.5560   -0.0000 </r>
       <r>   13.5969   -0.0000 </r>
       <r>   13.6194   -0.0000 </r>
       <r>   13.6312   -0.0000 </r>
       <r>   13.6660    0.0000 </r>
       <r>   13.6870    0.0000 </r>
       <r>   13.7360    0.0000 </r>
       <r>   13.7454    0.0000 </r>
       <r>   13.9024    0.0000 </r>
       <r>   13.9324    0.0000 </r>
       <r>   13.9892    0.0000 </r>
       <r>   14.0997    0.0000 </r>
       <r>   14.4515    0.0000 </r>
       <r>   14.7370    0.0000 </r>
       <r>   14.7563    0.0000 </r>
       <r>   14.8344    0.0000 </r>
       <r>   14.8621    0.0000 </r>
      </set>
      <set comment="kpoint 3">
       <r>   -7.1764    1.0000 </r>
       <r>   -6.6471    1.0000 </r>
       <r>   -5.7138    1.0000 </r>
       <r>   -5.6749    1.0000 </r>
       <r>   -5.5821    1.0000 </r>
       <r>   -5.4903    1.0000 </r>
       <r>   -5.2079    1.0000 </r>
       <r>   -5.1893    1.0000 </r>
       <r>   -5.0704    1.0000 </r>
       <r>   -5.0074    1.0000 </r>
       <r>   -4.6125    1.0000 </r>
       <r>   -4.3794    1.0000 </r>
       <r>   -4.2497    1.0000 </r>
       <r>   -4.2065    1.0000 </r>
       <r>   -4.1047    1.0000 </r>
       <r>   -4.0959    1.0000 </r>
       <r>   -4.0029    1.0000 </r>
       <r>   -3.9540    1.0000 </r>
       <r>   -3.8521    1.0000 </r>
       <r>   -3.4754    1.0000 </r>
       <r>   -3.4491    1.0000 </r>
       <r>   -3.3542    1.0000 </r>
       <r>   -3.3130    1.0000 </r>
       <r>   -3.1890    1.0000 </r>
       <r>   -2.6152    1.0000 </r>
       <r>   -2.5955    1.0000 </r>
       <r>   -2.4731    1.0000 </r>
       <r>   -2.4376    1.0000 </r>
       <r>   -2.2917    1.0000 </r>
       <r>   -2.2653    1.0000 </r>
       <r>   -2.1721    1.0000 </r>
       <r>   -2.1118    1.0000 </r>
       <r>   -0.1505    1.0000 </r>
       <r>   -0.0640    1.0000 </r>
       <r>   -0.0068    1.0000 </r>
       <r>    0.0620    1.0000 </r>
       <r>    0.3578    1.0000 </r>
       <r>    0.3767    1.0000 </r>
       <r>    0.6818    1.0000 </r>
       <r>    0.7213    1.0000 </r>
       <r>    0.9380    1.0000 </r>
       <r>    0.9793    1.0000 </r>
       <r>    1.0157    1.0000 </r>
       <r>    1.0575    1.0000 </r>
       <r>    1.0832    1.0000 </r>
       <r>    1.1002    1.0000 </r>
       <r>    1.1192    1.0000 </r>
       <r>    1.2123    1.0000 </r>
       <r>    1.2527    1.0000 </r>
       <r>    1.3631    1.0000 </r>
       <r>    1.4078    1.0000 </r>
       <r>    1.4423    1.0000 </r>
       <r>    1.5099    1.0000 </r>
       <r>    2.6312    1.0000 </r>
       <r>    2.6773    1.0000 </r>
       <r>    2.6885    1.0000 </r>
       <r>    2.7387    1.0000 </r>
       <r>    2.8745    1.0000 </r>
       <r>    2.8967    1.0000 </r>
       <r>    2.9144    1.0000 </r>
       <r>    2.9578    1.0000 </r>
       <r>    2.9941    1.0000 </r>
       <r>    3.0203    1.0000 </r>
       <r>    3.0421    1.0000 </r>
       <r>    3.0779    1.0000 </r>
       <r>    3.1107    1.0000 </r>
       <r>    3.5116    1.0000 </r>
       <r>    3.5261    1.0000 </r>
       <r>    3.6285    1.0000 </r>
       <r>    3.6512    1.0000 </r>
       <r>    3.9496    1.0000 </r>
       <r>    3.9947    1.0000 </r>
       <r>    4.0476    1.0000 </r>
       <r>    4.0997    1.0000 </r>
       <r>    4.3150    1.0000 </r>
       <r>    4.3364    1.0000 </r>
       <r>    4.3585    1.0000 </r>
       <r>    4.3831    1.0000 </r>
       <r>    4.4050    1.0000 </r>
       <r>    4.4215    1.0000 </r>
       <r>    4.4518    1.0000 </r>
       <r>    4.4931    1.0000 </r>
       <r>    4.5823    1.0000 </r>
       <r>    4.6031    1.0000 </r>
       <r>    4.6674    1.0000 </r>
       <r>    4.6935    1.0000 </r>
       <r>    4.7231    1.0000 </r>
       <r>    4.8415    1.0000 </r>
       <r>    4.8627    1.0000 </r>
       <r>    4.9586    1.0000 </r>
       <r>    4.9971    1.0000 </r>
       <r>    5.0207    1.0000 </r>
       <r>    5.3757    1.0000 </r>
       <r>    5.3970    1.0000 </r>
       <r>    5.5090    1.0000 </r>
       <r>    5.5832    1.0000 </r>
       <r>    5.6295    1.0000 </r>
       <r>    5.7140    1.0000 </r>
       <r>    5.8199    1.0000 </r>
       <r>    5.8592    1.0000 </r>
       <r>    5.8975    1.0000 </r>
       <r>    5.9509    1.0000 </r>
       <r>    6.1376    1.0000 </r>
       <r>    6.1893    1.0000 </r>
       <r>    6.2665    1.0000 </r>
       <r>    6.2778    1.0000 </r>
       <r>    6.3577    1.0000 </r>
       <r>    6.4214    1.0000 </r>
       <r>    6.4828    1.0000 </r>
       <r>    6.5403    1.0000 </r>
       <r>    6.5931    1.0000 </r>
       <r>    6.7669    1.0000 </r>
       <r>    6.7795    1.0000 </r>
       <r>    6.8013    1.0000 </r>
       <r>    6.8368    1.0000 </r>
       <r>    6.8714    1.0000 </r>
       <r>    6.8834    1.0000 </r>
       <r>    6.9001    1.0000 </r>
       <r>    6.9253    1.0000 </r>
       <r>    6.9491    1.0000 </r>
       <r>    6.9972    1.0000 </r>
       <r>    7.0100    1.0000 </r>
       <r>    7.0380    1.0000 </r>
       <r>    7.0733    1.0000 </r>
       <r>    7.1141    1.0000 </r>
       <r>    7.5009    1.0000 </r>
       <r>    7.6866    1.0012 </r>
       <r>    7.7425    1.0037 </r>
       <r>    9.6470   -0.0000 </r>
       <r>   10.1818   -0.0000 </r>
       <r>   10.2173   -0.0000 </r>
       <r>   10.6094   -0.0000 </r>
       <r>   11.9307   -0.0000 </r>
       <r>   11.9531   -0.0000 </r>
       <r>   12.4487   -0.0000 </r>
       <r>   12.5520   -0.0000 </r>
       <r>   12.5822   -0.0000 </r>
       <r>   12.6501   -0.0000 </r>
       <r>   12.6890   -0.0000 </r>
       <r>   12.8562   -0.0000 </r>
       <r>   12.8868   -0.0000 </r>
       <r>   12.9342   -0.0000 </r>
       <r>   12.9682   -0.0000 </r>
       <r>   13.0152   -0.0000 </r>
       <r>   13.0315   -0.0000 </r>
       <r>   13.0705   -0.0000 </r>
       <r>   13.1086   -0.0000 </r>
       <r>   13.1259   -0.0000 </r>
       <r>   13.1696   -0.0000 </r>
       <r>   13.2248   -0.0000 </r>
       <r>   13.4699   -0.0000 </r>
       <r>   13.5192   -0.0000 </r>
       <r>   13.5938   -0.0000 </r>
       <r>   13.6253   -0.0000 </r>
       <r>   13.6570    0.0000 </r>
       <r>   13.6761    0.0000 </r>
       <r>   13.6930    0.0000 </r>
       <r>   13.7081    0.0000 </r>
       <r>   13.7577    0.0000 </r>
       <r>   13.9040    0.0000 </r>
       <r>   13.9269    0.0000 </r>
       <r>   14.0208    0.0000 </r>
       <r>   14.0714    0.0000 </r>
       <r>   14.4645    0.0000 </r>
       <r>   14.7141    0.0000 </r>
       <r>   14.7692    0.0000 </r>
       <r>   14.8371    0.0000 </r>
       <r>   14.8568    0.0000 </r>
      </set>
      <set comment="kpoint 4">
       <r>   -7.1779    1.0000 </r>
       <r>   -6.6435    1.0000 </r>
       <r>   -5.7112    1.0000 </r>
       <r>   -5.6739    1.0000 </r>
       <r>   -5.5996    1.0000 </r>
       <r>   -5.4878    1.0000 </r>
       <r>   -5.2003    1.0000 </r>
       <r>   -5.1646    1.0000 </r>
       <r>   -5.0993    1.0000 </r>
       <r>   -4.9884    1.0000 </r>
       <r>   -4.6218    1.0000 </r>
       <r>   -4.3582    1.0000 </r>
       <r>   -4.2934    1.0000 </r>
       <r>   -4.1934    1.0000 </r>
       <r>   -4.1576    1.0000 </r>
       <r>   -4.0961    1.0000 </r>
       <r>   -4.0138    1.0000 </r>
       <r>   -3.8987    1.0000 </r>
       <r>   -3.8254    1.0000 </r>
       <r>   -3.4896    1.0000 </r>
       <r>   -3.4634    1.0000 </r>
       <r>   -3.3878    1.0000 </r>
       <r>   -3.2681    1.0000 </r>
       <r>   -3.1688    1.0000 </r>
       <r>   -2.6090    1.0000 </r>
       <r>   -2.5852    1.0000 </r>
       <r>   -2.4916    1.0000 </r>
       <r>   -2.4124    1.0000 </r>
       <r>   -2.3504    1.0000 </r>
       <r>   -2.2466    1.0000 </r>
       <r>   -2.1691    1.0000 </r>
       <r>   -2.1176    1.0000 </r>
       <r>   -0.1397    1.0000 </r>
       <r>   -0.0816    1.0000 </r>
       <r>   -0.0002    1.0000 </r>
       <r>    0.0537    1.0000 </r>
       <r>    0.3648    1.0000 </r>
       <r>    0.3753    1.0000 </r>
       <r>    0.7019    1.0000 </r>
       <r>    0.7228    1.0000 </r>
       <r>    0.9537    1.0000 </r>
       <r>    0.9904    1.0000 </r>
       <r>    1.0093    1.0000 </r>
       <r>    1.0458    1.0000 </r>
       <r>    1.0912    1.0000 </r>
       <r>    1.1110    1.0000 </r>
       <r>    1.1207    1.0000 </r>
       <r>    1.2050    1.0000 </r>
       <r>    1.2386    1.0000 </r>
       <r>    1.3742    1.0000 </r>
       <r>    1.3957    1.0000 </r>
       <r>    1.4208    1.0000 </r>
       <r>    1.5132    1.0000 </r>
       <r>    2.6253    1.0000 </r>
       <r>    2.6728    1.0000 </r>
       <r>    2.6905    1.0000 </r>
       <r>    2.7188    1.0000 </r>
       <r>    2.8641    1.0000 </r>
       <r>    2.8879    1.0000 </r>
       <r>    2.9191    1.0000 </r>
       <r>    2.9531    1.0000 </r>
       <r>    2.9892    1.0000 </r>
       <r>    3.0144    1.0000 </r>
       <r>    3.0562    1.0000 </r>
       <r>    3.0800    1.0000 </r>
       <r>    3.1513    1.0000 </r>
       <r>    3.5086    1.0000 </r>
       <r>    3.5216    1.0000 </r>
       <r>    3.6309    1.0000 </r>
       <r>    3.6530    1.0000 </r>
       <r>    3.9395    1.0000 </r>
       <r>    3.9990    1.0000 </r>
       <r>    4.0177    1.0000 </r>
       <r>    4.1197    1.0000 </r>
       <r>    4.3101    1.0000 </r>
       <r>    4.3396    1.0000 </r>
       <r>    4.3576    1.0000 </r>
       <r>    4.3767    1.0000 </r>
       <r>    4.4016    1.0000 </r>
       <r>    4.4307    1.0000 </r>
       <r>    4.4554    1.0000 </r>
       <r>    4.4810    1.0000 </r>
       <r>    4.5778    1.0000 </r>
       <r>    4.6294    1.0000 </r>
       <r>    4.6985    1.0000 </r>
       <r>    4.7096    1.0000 </r>
       <r>    4.7475    1.0000 </r>
       <r>    4.7997    1.0000 </r>
       <r>    4.8870    1.0000 </r>
       <r>    4.9282    1.0000 </r>
       <r>    4.9637    1.0000 </r>
       <r>    5.0226    1.0000 </r>
       <r>    5.3671    1.0000 </r>
       <r>    5.4133    1.0000 </r>
       <r>    5.4964    1.0000 </r>
       <r>    5.6051    1.0000 </r>
       <r>    5.6405    1.0000 </r>
       <r>    5.6904    1.0000 </r>
       <r>    5.8444    1.0000 </r>
       <r>    5.8530    1.0000 </r>
       <r>    5.9008    1.0000 </r>
       <r>    6.0003    1.0000 </r>
       <r>    6.1531    1.0000 </r>
       <r>    6.2026    1.0000 </r>
       <r>    6.2184    1.0000 </r>
       <r>    6.3444    1.0000 </r>
       <r>    6.3767    1.0000 </r>
       <r>    6.4296    1.0000 </r>
       <r>    6.4624    1.0000 </r>
       <r>    6.5118    1.0000 </r>
       <r>    6.6178    1.0000 </r>
       <r>    6.6756    1.0000 </r>
       <r>    6.7418    1.0000 </r>
       <r>    6.7741    1.0000 </r>
       <r>    6.7987    1.0000 </r>
       <r>    6.8499    1.0000 </r>
       <r>    6.8728    1.0000 </r>
       <r>    6.9052    1.0000 </r>
       <r>    6.9304    1.0000 </r>
       <r>    6.9452    1.0000 </r>
       <r>    6.9940    1.0000 </r>
       <r>    7.0100    1.0000 </r>
       <r>    7.0633    1.0000 </r>
       <r>    7.1188    1.0000 </r>
       <r>    7.1418    1.0000 </r>
       <r>    7.4907    1.0000 </r>
       <r>    7.6759    1.0009 </r>
       <r>    7.7732    1.0065 </r>
       <r>    9.6570   -0.0000 </r>
       <r>   10.1403   -0.0000 </r>
       <r>   10.2452   -0.0000 </r>
       <r>   10.6243   -0.0000 </r>
       <r>   11.8863   -0.0000 </r>
       <r>   11.9987   -0.0000 </r>
       <r>   12.4592   -0.0000 </r>
       <r>   12.5400   -0.0000 </r>
       <r>   12.6052   -0.0000 </r>
       <r>   12.6460   -0.0000 </r>
       <r>   12.6753   -0.0000 </r>
       <r>   12.8540   -0.0000 </r>
       <r>   12.8927   -0.0000 </r>
       <r>   12.9144   -0.0000 </r>
       <r>   12.9541   -0.0000 </r>
       <r>   13.0100   -0.0000 </r>
       <r>   13.0325   -0.0000 </r>
       <r>   13.0723   -0.0000 </r>
       <r>   13.1065   -0.0000 </r>
       <r>   13.1348   -0.0000 </r>
       <r>   13.1515   -0.0000 </r>
       <r>   13.2638   -0.0000 </r>
       <r>   13.4769   -0.0000 </r>
       <r>   13.5250   -0.0000 </r>
       <r>   13.5703   -0.0000 </r>
       <r>   13.6276   -0.0000 </r>
       <r>   13.6613    0.0000 </r>
       <r>   13.6714    0.0000 </r>
       <r>   13.6928    0.0000 </r>
       <r>   13.7229    0.0000 </r>
       <r>   13.7621    0.0000 </r>
       <r>   13.8877    0.0000 </r>
       <r>   13.9691    0.0000 </r>
       <r>   13.9878    0.0000 </r>
       <r>   14.0663    0.0000 </r>
       <r>   14.4669    0.0000 </r>
       <r>   14.7374    0.0000 </r>
       <r>   14.7748    0.0000 </r>
       <r>   14.8058    0.0000 </r>
       <r>   14.8488    0.0000 </r>
      </set>
      <set comment="kpoint 5">
       <r>   -7.0012    1.0000 </r>
       <r>   -6.4965    1.0000 </r>
       <r>   -6.4490    1.0000 </r>
       <r>   -5.9642    1.0000 </r>
       <r>   -5.4961    1.0000 </r>
       <r>   -5.4020    1.0000 </r>
       <r>   -5.0644    1.0000 </r>
       <r>   -4.9965    1.0000 </r>
       <r>   -4.9698    1.0000 </r>
       <r>   -4.8807    1.0000 </r>
       <r>   -4.6289    1.0000 </r>
       <r>   -4.5336    1.0000 </r>
       <r>   -4.4520    1.0000 </r>
       <r>   -4.3830    1.0000 </r>
       <r>   -4.0659    1.0000 </r>
       <r>   -3.9811    1.0000 </r>
       <r>   -3.5982    1.0000 </r>
       <r>   -3.4968    1.0000 </r>
       <r>   -3.4726    1.0000 </r>
       <r>   -3.4211    1.0000 </r>
       <r>   -3.3763    1.0000 </r>
       <r>   -3.2666    1.0000 </r>
       <r>   -3.1684    1.0000 </r>
       <r>   -3.0710    1.0000 </r>
       <r>   -2.8905    1.0000 </r>
       <r>   -2.8406    1.0000 </r>
       <r>   -2.7594    1.0000 </r>
       <r>   -2.7136    1.0000 </r>
       <r>   -2.6338    1.0000 </r>
       <r>   -2.3521    1.0000 </r>
       <r>   -2.2532    1.0000 </r>
       <r>   -2.2070    1.0000 </r>
       <r>   -0.2426    1.0000 </r>
       <r>   -0.1636    1.0000 </r>
       <r>    0.4307    1.0000 </r>
       <r>    0.4783    1.0000 </r>
       <r>    0.5129    1.0000 </r>
       <r>    0.5648    1.0000 </r>
       <r>    0.5858    1.0000 </r>
       <r>    0.6581    1.0000 </r>
       <r>    0.6953    1.0000 </r>
       <r>    0.7389    1.0000 </r>
       <r>    0.7729    1.0000 </r>
       <r>    0.8360    1.0000 </r>
       <r>    0.9031    1.0000 </r>
       <r>    1.0322    1.0000 </r>
       <r>    1.1879    1.0000 </r>
       <r>    1.2184    1.0000 </r>
       <r>    1.2651    1.0000 </r>
       <r>    1.3226    1.0000 </r>
       <r>    1.9094    1.0000 </r>
       <r>    1.9802    1.0000 </r>
       <r>    2.0327    1.0000 </r>
       <r>    2.0671    1.0000 </r>
       <r>    2.1013    1.0000 </r>
       <r>    2.1378    1.0000 </r>
       <r>    2.4184    1.0000 </r>
       <r>    2.5210    1.0000 </r>
       <r>    2.5709    1.0000 </r>
       <r>    2.6760    1.0000 </r>
       <r>    2.7664    1.0000 </r>
       <r>    3.1734    1.0000 </r>
       <r>    3.2297    1.0000 </r>
       <r>    3.2927    1.0000 </r>
       <r>    3.3415    1.0000 </r>
       <r>    3.4028    1.0000 </r>
       <r>    3.4939    1.0000 </r>
       <r>    3.5505    1.0000 </r>
       <r>    3.8715    1.0000 </r>
       <r>    3.9050    1.0000 </r>
       <r>    3.9501    1.0000 </r>
       <r>    4.0078    1.0000 </r>
       <r>    4.0570    1.0000 </r>
       <r>    4.0894    1.0000 </r>
       <r>    4.1523    1.0000 </r>
       <r>    4.2669    1.0000 </r>
       <r>    4.2901    1.0000 </r>
       <r>    4.4773    1.0000 </r>
       <r>    4.5039    1.0000 </r>
       <r>    4.6453    1.0000 </r>
       <r>    4.6982    1.0000 </r>
       <r>    4.8218    1.0000 </r>
       <r>    4.8501    1.0000 </r>
       <r>    4.8911    1.0000 </r>
       <r>    4.9094    1.0000 </r>
       <r>    4.9446    1.0000 </r>
       <r>    5.0213    1.0000 </r>
       <r>    5.0570    1.0000 </r>
       <r>    5.2184    1.0000 </r>
       <r>    5.2486    1.0000 </r>
       <r>    5.3524    1.0000 </r>
       <r>    5.3918    1.0000 </r>
       <r>    5.4424    1.0000 </r>
       <r>    5.4984    1.0000 </r>
       <r>    5.5284    1.0000 </r>
       <r>    5.5576    1.0000 </r>
       <r>    5.5789    1.0000 </r>
       <r>    5.6137    1.0000 </r>
       <r>    5.6655    1.0000 </r>
       <r>    5.6954    1.0000 </r>
       <r>    5.7379    1.0000 </r>
       <r>    5.8242    1.0000 </r>
       <r>    5.9750    1.0000 </r>
       <r>    6.0013    1.0000 </r>
       <r>    6.0687    1.0000 </r>
       <r>    6.1120    1.0000 </r>
       <r>    6.1794    1.0000 </r>
       <r>    6.1990    1.0000 </r>
       <r>    6.2610    1.0000 </r>
       <r>    6.2890    1.0000 </r>
       <r>    6.3860    1.0000 </r>
       <r>    6.4056    1.0000 </r>
       <r>    6.4826    1.0000 </r>
       <r>    6.5553    1.0000 </r>
       <r>    6.6073    1.0000 </r>
       <r>    6.6264    1.0000 </r>
       <r>    6.7080    1.0000 </r>
       <r>    6.7512    1.0000 </r>
       <r>    6.7874    1.0000 </r>
       <r>    6.8318    1.0000 </r>
       <r>    6.8766    1.0000 </r>
       <r>    6.9358    1.0000 </r>
       <r>    6.9976    1.0000 </r>
       <r>    7.3338    1.0000 </r>
       <r>    7.4783    1.0000 </r>
       <r>    7.5864    1.0001 </r>
       <r>    7.6528    1.0005 </r>
       <r>    7.9554    1.0345 </r>
       <r>   10.3442   -0.0000 </r>
       <r>   10.4361   -0.0000 </r>
       <r>   10.5586   -0.0000 </r>
       <r>   11.2881   -0.0000 </r>
       <r>   11.3399   -0.0000 </r>
       <r>   11.5942   -0.0000 </r>
       <r>   11.7155   -0.0000 </r>
       <r>   11.7693   -0.0000 </r>
       <r>   12.1457   -0.0000 </r>
       <r>   12.2157   -0.0000 </r>
       <r>   12.6963   -0.0000 </r>
       <r>   12.8020   -0.0000 </r>
       <r>   12.8332   -0.0000 </r>
       <r>   12.9155   -0.0000 </r>
       <r>   13.0288   -0.0000 </r>
       <r>   13.0697   -0.0000 </r>
       <r>   13.1029   -0.0000 </r>
       <r>   13.1271   -0.0000 </r>
       <r>   13.1660   -0.0000 </r>
       <r>   13.2233   -0.0000 </r>
       <r>   13.2767   -0.0000 </r>
       <r>   13.2968   -0.0000 </r>
       <r>   13.4839   -0.0000 </r>
       <r>   13.5444   -0.0000 </r>
       <r>   13.5493   -0.0000 </r>
       <r>   13.6312   -0.0000 </r>
       <r>   13.7013    0.0000 </r>
       <r>   13.7113    0.0000 </r>
       <r>   13.7741    0.0000 </r>
       <r>   13.8233    0.0000 </r>
       <r>   13.8822    0.0000 </r>
       <r>   13.9391    0.0000 </r>
       <r>   14.0183    0.0000 </r>
       <r>   14.0900    0.0000 </r>
       <r>   14.1124    0.0000 </r>
       <r>   14.6306    0.0000 </r>
       <r>   14.7080    0.0000 </r>
       <r>   14.7311    0.0000 </r>
       <r>   14.8984    0.0000 </r>
       <r>   14.9635    0.0000 </r>
      </set>
      <set comment="kpoint 6">
       <r>   -7.0023    1.0000 </r>
       <r>   -6.4929    1.0000 </r>
       <r>   -6.4503    1.0000 </r>
       <r>   -5.9554    1.0000 </r>
       <r>   -5.5296    1.0000 </r>
       <r>   -5.3745    1.0000 </r>
       <r>   -5.1310    1.0000 </r>
       <r>   -5.0004    1.0000 </r>
       <r>   -4.9104    1.0000 </r>
       <r>   -4.8712    1.0000 </r>
       <r>   -4.6292    1.0000 </r>
       <r>   -4.5152    1.0000 </r>
       <r>   -4.4408    1.0000 </r>
       <r>   -4.3894    1.0000 </r>
       <r>   -4.0968    1.0000 </r>
       <r>   -3.9620    1.0000 </r>
       <r>   -3.6302    1.0000 </r>
       <r>   -3.5364    1.0000 </r>
       <r>   -3.4741    1.0000 </r>
       <r>   -3.3968    1.0000 </r>
       <r>   -3.3346    1.0000 </r>
       <r>   -3.2828    1.0000 </r>
       <r>   -3.1753    1.0000 </r>
       <r>   -3.0437    1.0000 </r>
       <r>   -2.8954    1.0000 </r>
       <r>   -2.8370    1.0000 </r>
       <r>   -2.7937    1.0000 </r>
       <r>   -2.6859    1.0000 </r>
       <r>   -2.6168    1.0000 </r>
       <r>   -2.3386    1.0000 </r>
       <r>   -2.2906    1.0000 </r>
       <r>   -2.2075    1.0000 </r>
       <r>   -0.2462    1.0000 </r>
       <r>   -0.1196    1.0000 </r>
       <r>    0.3883    1.0000 </r>
       <r>    0.4599    1.0000 </r>
       <r>    0.5054    1.0000 </r>
       <r>    0.5917    1.0000 </r>
       <r>    0.6157    1.0000 </r>
       <r>    0.6247    1.0000 </r>
       <r>    0.6830    1.0000 </r>
       <r>    0.7381    1.0000 </r>
       <r>    0.7933    1.0000 </r>
       <r>    0.8372    1.0000 </r>
       <r>    0.9270    1.0000 </r>
       <r>    0.9852    1.0000 </r>
       <r>    1.1755    1.0000 </r>
       <r>    1.2063    1.0000 </r>
       <r>    1.2815    1.0000 </r>
       <r>    1.3150    1.0000 </r>
       <r>    1.9539    1.0000 </r>
       <r>    1.9737    1.0000 </r>
       <r>    2.0217    1.0000 </r>
       <r>    2.0532    1.0000 </r>
       <r>    2.1406    1.0000 </r>
       <r>    2.1794    1.0000 </r>
       <r>    2.4117    1.0000 </r>
       <r>    2.5417    1.0000 </r>
       <r>    2.6004    1.0000 </r>
       <r>    2.6328    1.0000 </r>
       <r>    2.7421    1.0000 </r>
       <r>    3.1499    1.0000 </r>
[...]
      </set>
     </set>
    </set>
   </array>
  </eigenvalues>
  <separator name="orbital magnetization" >
   <v name="MAGDIPOLOUT">      0.00000000      0.00000000      0.00000000</v>
  </separator>
  <dos>
   <i name="efermi">      8.18564702 </i>
   <total>
    <array>
     <dimension dim="1">gridpoints</dimension>
     <dimension dim="2">spin</dimension>
     <field>energy</field>
     <field>total</field>
     <field>integrated</field>
     <set>
      <set comment="spin 1">
       <r>    -9.3548     0.0000     0.0000 </r>
       <r>    -9.2653     0.0000     0.0000 </r>
       <r>    -9.1759     0.0000     0.0000 </r>
       <r>    -9.0865     0.0000     0.0000 </r>
       <r>    -8.9971    -0.0000    -0.0000 </r>
       <r>    -8.9076    -0.0000    -0.0000 </r>
       <r>    -8.8182    -0.0000    -0.0000 </r>
       <r>    -8.7288    -0.0000    -0.0000 </r>
       <r>    -8.6393    -0.0000    -0.0000 </r>
       <r>    -8.5499    -0.0000    -0.0000 </r>
       <r>    -8.4605    -0.0000    -0.0000 </r>
       <r>    -8.3710    -0.0000    -0.0000 </r>
       <r>    -8.2816    -0.0000    -0.0000 </r>
       <r>    -8.1922    -0.0000    -0.0000 </r>
       <r>    -8.1028    -0.0000    -0.0000 </r>
       <r>    -8.0133    -0.0000    -0.0000 </r>
       <r>    -7.9239    -0.0002    -0.0000 </r>
       <r>    -7.8345    -0.0014    -0.0001 </r>
       <r>    -7.7450    -0.0073    -0.0008 </r>
       <r>    -7.6556    -0.0233    -0.0029 </r>
       <r>    -7.5662    -0.0424    -0.0067 </r>
       <r>    -7.4767    -0.0204    -0.0085 </r>
       <r>    -7.3873     0.1487     0.0048 </r>
       <r>    -7.2979     0.6435     0.0624 </r>
       <r>    -7.2085     1.5863     0.2042 </r>
       <r>    -7.1190     2.8642     0.4604 </r>
       <r>    -7.0296     4.0877     0.8259 </r>
       <r>    -6.9402     4.5909     1.2365 </r>
       <r>    -6.8507     4.0569     1.5993 </r>
       <r>    -6.7613     3.1024     1.8767 </r>
       <r>    -6.6719     2.8851     2.1348 </r>
       <r>    -6.5824     4.4360     2.5315 </r>
       <r>    -6.4930     7.4873     3.2011 </r>
       <r>    -6.4036     9.9703     4.0927 </r>
       <r>    -6.3142     9.8198     4.9709 </r>
       <r>    -6.2247     7.0009     5.5970 </r>
       <r>    -6.1353     3.6303     5.9216 </r>
       <r>    -6.0459     2.5010     6.1453 </r>
       <r>    -5.9564     4.4776     6.5457 </r>
       <r>    -5.8670     7.7503     7.2388 </r>
       <r>    -5.7776    10.2572     8.1561 </r>
       <r>    -5.6881    11.1725     9.1553 </r>
       <r>    -5.5987    10.8849    10.1287 </r>
       <r>    -5.5093    10.4379    11.0622 </r>
       <r>    -5.4199     9.7993    11.9385 </r>
       <r>    -5.3304     8.4256    12.6920 </r>
       <r>    -5.2410     7.5314    13.3656 </r>
       <r>    -5.1516     9.1167    14.1809 </r>
       <r>    -5.0621    12.8749    15.3323 </r>
       <r>    -4.9727    15.0703    16.6800 </r>
       <r>    -4.8833    12.3610    17.7855 </r>
       <r>    -4.7938     6.9610    18.4080 </r>
       <r>    -4.7044     4.5733    18.8170 </r>
       <r>    -4.6150     7.3393    19.4733 </r>
       <r>    -4.5256    12.4928    20.5906 </r>
       <r>    -4.4361    16.9035    22.1023 </r>
       <r>    -4.3467    18.5488    23.7611 </r>
       <r>    -4.2573    16.9091    25.2732 </r>
       <r>    -4.1678    15.3494    26.6459 </r>
       <r>    -4.0784    17.5220    28.2129 </r>
       <r>    -3.9890    21.2802    30.1160 </r>
       <r>    -3.8995    21.5134    32.0400 </r>
       <r>    -3.8101    17.3527    33.5918 </r>
       <r>    -3.7207    13.0908    34.7625 </r>
       <r>    -3.6313    13.0206    35.9269 </r>
       <r>    -3.5418    16.7390    37.4239 </r>
       <r>    -3.4524    20.1752    39.2282 </r>
       <r>    -3.3630    20.3098    41.0445 </r>
       <r>    -3.2735    18.0722    42.6607 </r>
       <r>    -3.1841    16.8541    44.1679 </r>
       <r>    -3.0947    17.9116    45.7698 </r>
       <r>    -3.0052    19.8583    47.5457 </r>
       <r>    -2.9158    22.2966    49.5397 </r>
       <r>    -2.8264    25.0417    51.7792 </r>
       <r>    -2.7370    25.7864    54.0853 </r>
       <r>    -2.6475    22.3902    56.0876 </r>
       <r>    -2.5581    15.9443    57.5135 </r>
       <r>    -2.4687    10.9986    58.4971 </r>
       <r>    -2.3792    11.4199    59.5184 </r>
       <r>    -2.2898    15.1483    60.8731 </r>
       <r>    -2.2004    16.1799    62.3201 </r>
       <r>    -2.1109    11.9811    63.3915 </r>
       <r>    -2.0215     5.7831    63.9087 </r>
       <r>    -1.9321     1.5356    64.0460 </r>
       <r>    -1.8427    -0.0449    64.0420 </r>
       <r>    -1.7532    -0.2549    64.0192 </r>
       <r>    -1.6638    -0.1444    64.0063 </r>
       <r>    -1.5744    -0.0535    64.0015 </r>
       <r>    -1.4849    -0.0142    64.0003 </r>
       <r>    -1.3955    -0.0026    64.0000 </r>
       <r>    -1.3061    -0.0003    64.0000 </r>
       <r>    -1.2166    -0.0001    64.0000 </r>
       <r>    -1.1272    -0.0005    63.9999 </r>
       <r>    -1.0378    -0.0037    63.9996 </r>
       <r>    -0.9484    -0.0159    63.9982 </r>
       <r>    -0.8589    -0.0358    63.9950 </r>
       <r>    -0.7695    -0.0130    63.9938 </r>
       <r>    -0.6801     0.1497    64.0072 </r>
       <r>    -0.5906     0.4155    64.0444 </r>
       <r>    -0.5012     0.5457    64.0932 </r>
       <r>    -0.4118     0.7559    64.1608 </r>
       <r>    -0.3223     2.3320    64.3693 </r>
       <r>    -0.2329     6.0180    64.9075 </r>
       <r>    -0.1435     9.6120    65.7671 </r>
       <r>    -0.0541    10.0299    66.6641 </r>
       <r>     0.0354     7.7940    67.3611 </r>
       <r>     0.1248     6.4433    67.9373 </r>
       <r>     0.2142     8.5198    68.6993 </r>
       <r>     0.3037    13.8509    69.9379 </r>
       <r>     0.3931    19.7890    71.7077 </r>
       <r>     0.4825    22.9695    73.7618 </r>
       <r>     0.5720    23.1897    75.8357 </r>
       <r>     0.6614    24.0818    77.9893 </r>
       <r>     0.7508    27.7744    80.4732 </r>
       <r>     0.8402    31.4839    83.2888 </r>
       <r>     0.9297    31.6750    86.1215 </r>
       <r>     1.0191    29.5776    88.7666 </r>
       <r>     1.1085    29.9172    91.4421 </r>
       <r>     1.1980    33.8739    94.4714 </r>
       <r>     1.2874    35.8276    97.6755 </r>
       <r>     1.3768    30.1578   100.3725 </r>
       <r>     1.4663    18.5958   102.0355 </r>
       <r>     1.5557     7.4646   102.7031 </r>
       <r>     1.6451     0.9443   102.7875 </r>
       <r>     1.7345    -0.4579   102.7466 </r>
       <r>     1.8240     2.6213   102.9810 </r>
       <r>     1.9134     9.4803   103.8288 </r>
       <r>     2.0028    17.7117   105.4128 </r>
       <r>     2.0923    22.7644   107.4486 </r>
       <r>     2.1817    21.2900   109.3526 </r>
       <r>     2.2711    14.8086   110.6769 </r>
       <r>     2.3606     8.6865   111.4538 </r>
       <r>     2.4500     7.2344   112.1007 </r>
       <r>     2.5394    10.8135   113.0678 </r>
       <r>     2.6288    15.9425   114.4935 </r>
       <r>     2.7183    17.4562   116.0546 </r>
       <r>     2.8077    14.5047   117.3518 </r>
       <r>     2.8971    12.5410   118.4733 </r>
       <r>     2.9866    15.5503   119.8640 </r>
       <r>     3.0760    21.3627   121.7744 </r>
       <r>     3.1654    26.7149   124.1635 </r>
       <r>     3.2548    30.5216   126.8931 </r>
       <r>     3.3443    31.3443   129.6962 </r>
       <r>     3.4337    29.1324   132.3015 </r>
       <r>     3.5231    26.9394   134.7107 </r>
       <r>     3.6126    24.6482   136.9150 </r>
       <r>     3.7020    19.6193   138.6696 </r>
       <r>     3.7914    14.5515   139.9709 </r>
       <r>     3.8809    14.9107   141.3044 </r>
       <r>     3.9703    19.9594   143.0893 </r>
       <r>     4.0597    23.0276   145.1487 </r>
       <r>     4.1491    21.1594   147.0410 </r>
       <r>     4.2386    19.9677   148.8267 </r>
       <r>     4.3280    24.6029   151.0269 </r>
       <r>     4.4174    31.2113   153.8181 </r>
       <r>     4.5069    34.4569   156.8996 </r>
       <r>     4.5963    34.6435   159.9978 </r>
       <r>     4.6857    33.9104   163.0304 </r>
       <r>     4.7752    34.1136   166.0812 </r>
       <r>     4.8646    35.6987   169.2737 </r>
       <r>     4.9540    35.8199   172.4771 </r>
       <r>     5.0434    32.9175   175.4209 </r>
       <r>     5.1329    29.9126   178.0960 </r>
       <r>     5.2223    29.5438   180.7381 </r>
       <r>     5.3117    30.7170   183.4851 </r>
       <r>     5.4012    31.8700   186.3352 </r>
       <r>     5.4906    34.5841   189.4281 </r>
       <r>     5.5800    39.2195   192.9354 </r>
       <r>     5.6695    41.1096   196.6119 </r>
       <r>     5.7589    37.6944   199.9829 </r>
       <r>     5.8483    33.6881   202.9956 </r>
       <r>     5.9377    32.7822   205.9273 </r>
       <r>     6.0272    32.2749   208.8137 </r>
       <r>     6.1166    30.4372   211.5357 </r>
       <r>     6.2060    30.1492   214.2319 </r>
       <r>     6.2955    32.1004   217.1027 </r>
       <r>     6.3849    33.4609   220.0951 </r>
       <r>     6.4743    32.8019   223.0285 </r>
       <r>     6.5638    30.2261   225.7317 </r>
       <r>     6.6532    27.4797   228.1892 </r>
       <r>     6.7426    28.2666   230.7170 </r>
       <r>     6.8320    33.5907   233.7211 </r>
       <r>     6.9215    38.6854   237.1807 </r>
       <r>     7.0109    37.1158   240.5000 </r>
       <r>     7.1003    28.1069   243.0136 </r>
       <r>     7.1898    17.9934   244.6227 </r>
       <r>     7.2792    13.1381   245.7977 </r>
       <r>     7.3686    14.2056   247.0681 </r>
       <r>     7.4581    17.7586   248.6562 </r>
       <r>     7.5475    20.1337   250.4568 </r>
       <r>     7.6369    19.4905   252.1998 </r>
       <r>     7.7263    15.8186   253.6145 </r>
       <r>     7.8158    10.4248   254.5468 </r>
       <r>     7.9052     6.0407   255.0870 </r>
       <r>     7.9946     4.3439   255.4754 </r>
       <r>     8.0841     3.6224   255.7994 </r>
       <r>     8.1735     2.0965   255.9869 </r>
       <r>     8.2629     0.5159   256.0330 </r>
       <r>     8.3524    -0.1436   256.0202 </r>
       <r>     8.4418    -0.1559   256.0063 </r>
       <r>     8.5312    -0.0564   256.0012 </r>
       <r>     8.6206    -0.0118   256.0001 </r>
       <r>     8.7101    -0.0020   256.0000 </r>
       <r>     8.7995    -0.0033   255.9997 </r>
       <r>     8.8889    -0.0124   255.9986 </r>
       <r>     8.9784    -0.0242   255.9964 </r>
       <r>     9.0678     0.0053   255.9969 </r>
       <r>     9.1572     0.1468   256.0100 </r>
       <r>     9.2467     0.3733   256.0434 </r>
       <r>     9.3361     0.5248   256.0903 </r>
       <r>     9.4255     0.5774   256.1419 </r>
       <r>     9.5149     0.8452   256.2175 </r>
       <r>     9.6044     1.4870   256.3505 </r>
       <r>     9.6938     1.8572   256.5166 </r>
       <r>     9.7832     1.2931   256.6322 </r>
       <r>     9.8727     0.3089   256.6599 </r>
       <r>     9.9621    -0.0903   256.6518 </r>
       <r>    10.0515     0.5294   256.6991 </r>
       <r>    10.1410     2.0394   256.8815 </r>
       <r>    10.2304     4.0379   257.2426 </r>
       <r>    10.3198     6.1086   257.7889 </r>
       <r>    10.4092     8.0014   258.5045 </r>
       <r>    10.4987     9.8079   259.3816 </r>
       <r>    10.5881    11.1558   260.3793 </r>
       <r>    10.6775    10.5785   261.3253 </r>
       <r>    10.7670     7.6507   262.0095 </r>
       <r>    10.8564     3.9561   262.3633 </r>
       <r>    10.9458     1.0578   262.4579 </r>
       <r>    11.0353    -0.4067   262.4215 </r>
       <r>    11.1247     0.0049   262.4220 </r>
       <r>    11.2141     2.6655   262.6603 </r>
       <r>    11.3035     6.3193   263.2255 </r>
       <r>    11.3930     8.5971   263.9943 </r>
       <r>    11.4824     9.6354   264.8560 </r>
       <r>    11.5718    11.1550   265.8536 </r>
       <r>    11.6613    13.1603   267.0305 </r>
       <r>    11.7507    15.2165   268.3913 </r>
       <r>    11.8401    17.2767   269.9364 </r>
       <r>    11.9296    18.8207   271.6195 </r>
       <r>    12.0190    19.3691   273.3517 </r>
       <r>    12.1084    18.2652   274.9852 </r>
       <r>    12.1978    14.4000   276.2730 </r>
       <r>    12.2873     8.3689   277.0214 </r>
       <r>    12.3767     4.3059   277.4065 </r>
       <r>    12.4661     6.1929   277.9603 </r>
       <r>    12.5556    12.8175   279.1066 </r>
       <r>    12.6450    19.8573   280.8824 </r>
       <r>    12.7344    25.1795   283.1342 </r>
       <r>    12.8239    28.7327   285.7037 </r>
       <r>    12.9133    30.4036   288.4227 </r>
       <r>    13.0027    31.3394   291.2254 </r>
       <r>    13.0921    32.6640   294.1466 </r>
       <r>    13.1816    31.6854   296.9802 </r>
       <r>    13.2710    25.4455   299.2558 </r>
       <r>    13.3604    17.5643   300.8266 </r>
       <r>    13.4499    16.2298   302.2780 </r>
       <r>    13.5393    23.6442   304.3925 </r>
       <r>    13.6287    31.9307   307.2480 </r>
       <r>    13.7182    33.3519   310.2307 </r>
       <r>    13.8076    29.5492   312.8733 </r>
       <r>    13.8970    27.4423   315.3274 </r>
       <r>    13.9864    29.6330   317.9775 </r>
       <r>    14.0759    31.6865   320.8112 </r>
       <r>    14.1653    28.4423   323.3548 </r>
       <r>    14.2547    20.0211   325.1453 </r>
       <r>    14.3442    10.5766   326.0912 </r>
       <r>    14.4336     4.3926   326.4840 </r>
       <r>    14.5230     4.5079   326.8872 </r>
       <r>    14.6125    11.2633   327.8944 </r>
       <r>    14.7019    19.5762   329.6451 </r>
       <r>    14.7913    22.2710   331.6368 </r>
       <r>    14.8807    18.2467   333.2686 </r>
       <r>    14.9702    11.5587   334.3023 </r>
       <r>    15.0596     5.2421   334.7711 </r>
       <r>    15.1490     1.2258   334.8807 </r>
       <r>    15.2385     0.8036   334.9526 </r>
       <r>    15.3279     2.8166   335.2045 </r>
       <r>    15.4173     4.2531   335.5849 </r>
       <r>    15.5068     3.4048   335.8893 </r>
       <r>    15.5962     1.4251   336.0168 </r>
       <r>    15.6856     0.1279   336.0282 </r>
       <r>    15.7750    -0.1790   336.0122 </r>
       <r>    15.8645    -0.1030   336.0030 </r>
       <r>    15.9539    -0.0285   336.0005 </r>
       <r>    16.0433    -0.0048   336.0000 </r>
       <r>    16.1328    -0.0005   336.0000 </r>
       <r>    16.2222    -0.0000   336.0000 </r>
       <r>    16.3116    -0.0000   336.0000 </r>
       <r>    16.4010    -0.0000   336.0000 </r>
       <r>    16.4905    -0.0000   336.0000 </r>
       <r>    16.5799    -0.0000   336.0000 </r>
       <r>    16.6693    -0.0000   336.0000 </r>
       <r>    16.7588    -0.0000   336.0000 </r>
       <r>    16.8482     0.0000   336.0000 </r>
       <r>    16.9376     0.0000   336.0000 </r>
       <r>    17.0271     0.0000   336.0000 </r>
       <r>    17.1165     0.0000   336.0000 </r>
       <r>    17.2059     0.0000   336.0000 </r>
       <r>    17.2953     0.0000   336.0000 </r>
       <r>    17.3848     0.0000   336.0000 </r>
       <r>    17.4742     0.0000   336.0000 </r>
      </set>
     </set>
    </array>
   </total>
  </dos>
 </calculation>
 <structure name="finalpos" >
  <crystal>
   <varray name="basis" >
    <v>       8.74331558       0.00000000       0.00000000 </v>
    <v>       0.00000000       8.74331558       0.00000000 </v>
    <v>       0.00000000       0.00000000       8.74331558 </v>
   </varray>
   <i name="volume">    668.38771987 </i>
   <varray name="rec_basis" >
    <v>       0.11437309       0.00000000       0.00000000 </v>
    <v>       0.00000000       0.11437309       0.00000000 </v>
    <v>       0.00000000       0.00000000       0.11437309 </v>
   </varray>
  </crystal>
  <varray name="positions" >
   <v>       0.12676858       0.12309554       0.12725026 </v>
   <v>       0.12972846       0.37341967       0.37839374 </v>
   <v>       0.37449683       0.12598300       0.37597961 </v>
   <v>       0.37414369       0.37423531       0.12859837 </v>
   <v>       0.12904736       0.12798938       0.62721704 </v>
   <v>       0.12589384       0.36846811       0.87710751 </v>
   <v>       0.37290701       0.12878984       0.87526674 </v>
   <v>       0.37701380       0.37459048       0.62620271 </v>
   <v>       0.12488081       0.62496293       0.12445732 </v>
   <v>       0.12619108       0.87353020       0.38010454 </v>
   <v>       0.37384480       0.62890454       0.37169809 </v>
   <v>       0.36970326       0.87696002       0.12418132 </v>
   <v>       0.13083091       0.62490679       0.62454263 </v>
   <v>       0.12269387       0.87542817       0.87814442 </v>
   <v>       0.37408510       0.61763641       0.87103627 </v>
   <v>       0.37478628       0.87515982       0.62632095 </v>
   <v>       0.62909607       0.12473283       0.12413991 </v>
   <v>       0.62599309       0.37985716       0.36864261 </v>
   <v>       0.87165621       0.12223307       0.37013252 </v>
   <v>       0.87432049       0.37616799       0.12833341 </v>
   <v>       0.62791094       0.12402137       0.62667000 </v>
   <v>       0.62630917       0.37985174       0.87808584 </v>
   <v>       0.87556927       0.11953642       0.87026435 </v>
   <v>       0.87323962       0.37996979       0.62210561 </v>
   <v>       0.63066767       0.62446739       0.12727535 </v>
   <v>       0.62659253       0.87556547       0.38153750 </v>
   <v>       0.87230300       0.62032832       0.37436352 </v>
   <v>       0.88004821       0.87161784       0.12327156 </v>
   <v>       0.62487135       0.62414076       0.62388518 </v>
   <v>       0.62177985       0.87063509       0.86757724 </v>
   <v>       0.87631817       0.62157650       0.87728282 </v>
   <v>       0.87233360       0.87743573       0.62114687 </v>
   <v>       0.99791652       0.99853223       0.00018295 </v>
   <v>       0.99726969       0.25712859       0.25125446 </v>
   <v>       0.25578115       0.99859149       0.25100149 </v>
   <v>       0.24570075       0.24832703       0.99650671 </v>
   <v>       0.99904120       0.00092042       0.50041152 </v>
   <v>       0.00345558       0.24605620       0.74907373 </v>
   <v>       0.25001951       0.99625717       0.75062608 </v>
   <v>       0.26074088       0.24938276       0.49925510 </v>
   <v>       0.00445363       0.49608799       0.00105076 </v>
   <v>       0.99565120       0.74793240       0.24396736 </v>
   <v>       0.24862036       0.49819791       0.25022773 </v>
   <v>       0.25259531       0.75154602       0.00016124 </v>
   <v>       0.00003707       0.49685223       0.49737735 </v>
   <v>       0.99907313       0.74869322       0.74752351 </v>
   <v>       0.24873335       0.50064057       0.74768331 </v>
   <v>       0.25548384       0.74719201       0.49691920 </v>
   <v>       0.50149510       0.99786995       0.99614088 </v>
   <v>       0.49594079       0.24621846       0.25060113 </v>
   <v>       0.75152944       0.99686541       0.24915026 </v>
   <v>       0.74771216       0.24595285       0.99595439 </v>
   <v>       0.50279044       0.99963476       0.50225273 </v>
   <v>       0.50243643       0.24661545       0.73930894 </v>
   <v>       0.74794778       0.99986658       0.75151994 </v>
   <v>       0.75185696       0.25388828       0.50664485 </v>
   <v>       0.49775041       0.49732151       0.99997392 </v>
   <v>       0.49632542       0.75097906       0.24650041 </v>
   <v>       0.74986979       0.50257072       0.24893061 </v>
   <v>       0.75129065       0.75059305       0.00041450 </v>
   <v>       0.49984477       0.49983087       0.50237045 </v>
   <v>       0.49648042       0.74716562       0.74831561 </v>
   <v>       0.75231740       0.50433622       0.74497828 </v>
   <v>       0.75602007       0.74913163       0.49844408 </v>
  </varray>
 </structure>
</modeling>
