unknown system                          
           1
     8.743316    0.000000    0.000000
     0.000000    8.743316    0.000000
     0.000000    0.000000    8.743316
   C    Si
    32    32
Direct configuration=     1
   0.12676858  0.12309554  0.12725026
   0.12972846  0.37341967  0.37839374
   0.37449683  0.12598300  0.37597961
   0.37414369  0.37423531  0.12859837
   0.12904736  0.12798938  0.62721704
   0.12589384  0.36846811  0.87710751
   0.37290701  0.12878984  0.87526674
   0.37701380  0.37459048  0.62620271
   0.12488081  0.62496293  0.12445732
   0.12619108  0.87353020  0.38010454
   0.37384480  0.62890454  0.37169809
   0.36970326  0.87696002  0.12418132
   0.13083091  0.62490679  0.62454263
   0.12269387  0.87542817  0.87814442
   0.37408510  0.61763641  0.87103627
   0.37478628  0.87515982  0.62632095
   0.62909607  0.12473283  0.12413991
   0.62599309  0.37985716  0.36864261
   0.87165621  0.12223307  0.37013252
   0.87432049  0.37616799  0.12833341
   0.62791094  0.12402137  0.62667000
   0.62630917  0.37985174  0.87808584
   0.87556927  0.11953642  0.87026435
   0.87323962  0.37996979  0.62210561
   0.63066767  0.62446739  0.12727535
   0.62659253  0.87556547  0.38153750
   0.87230300  0.62032832  0.37436352
   0.88004821  0.87161784  0.12327156
   0.62487135  0.62414076  0.62388518
   0.62177985  0.87063509  0.86757724
   0.87631817  0.62157650  0.87728282
   0.87233360  0.87743573  0.62114687
   0.99791652  0.99853223  0.00018295
   0.99726969  0.25712859  0.25125446
   0.25578115  0.99859149  0.25100149
   0.24570075  0.24832703  0.99650671
   0.99904120  0.00092042  0.50041152
   0.00345558  0.24605620  0.74907373
   0.25001951  0.99625717  0.75062608
   0.26074088  0.24938276  0.49925510
   0.00445363  0.49608799  0.00105076
   0.99565120  0.74793240  0.24396736
   0.24862036  0.49819791  0.25022773
   0.25259531  0.75154602  0.00016124
   0.00003707  0.49685223  0.49737735
   0.99907313  0.74869322  0.74752351
   0.24873335  0.50064057  0.74768331
   0.25548384  0.74719201  0.49691920
   0.50149510  0.99786995  0.99614088
   0.49594079  0.24621846  0.25060113
   0.75152944  0.99686541  0.24915026
   0.74771216  0.24595285  0.99595439
   0.50279044  0.99963476  0.50225273
   0.50243643  0.24661545  0.73930894
   0.74794778  0.99986658  0.75151994
   0.75185696  0.25388828  0.50664485
   0.49775041  0.49732151  0.99997392
   0.49632542  0.75097906  0.24650041
   0.74986979  0.50257072  0.24893061
   0.75129065  0.75059305  0.00041450
   0.49984477  0.49983087  0.50237045
   0.49648042  0.74716562  0.74831561
   0.75231740  0.50433622  0.74497828
   0.75602007  0.74913163  0.49844408
