       N       E                     dE             d eps       ncg     rms          rms(c)
DAV:   1     0.670528582346E+03    0.67053E+03   -0.99564E+04  4704   0.111E+03
DAV:   2    -0.461544959472E+03   -0.11321E+04   -0.10723E+04  5808   0.221E+02
DAV:   3    -0.536950697984E+03   -0.75406E+02   -0.74700E+02  5672   0.562E+01
DAV:   4    -0.538627783035E+03   -0.16771E+01   -0.16697E+01  5712   0.908E+00
DAV:   5    -0.538675128389E+03   -0.47345E-01   -0.47269E-01  5560   0.145E+00    0.493E+01
DAV:   6    -0.481727810123E+03    0.56947E+02   -0.19078E+02  5344   0.235E+01    0.219E+01
DAV:   7    -0.480382563904E+03    0.13452E+01   -0.15967E+01  5904   0.712E+00    0.977E+00
DAV:   8    -0.480152941579E+03    0.22962E+00   -0.10392E+00  5416   0.199E+00    0.271E+00
DAV:   9    -0.480136129093E+03    0.16812E-01   -0.14922E-01  5480   0.843E-01    0.448E-01
DAV:  10    -0.480138928108E+03   -0.27990E-02   -0.12895E-02  5720   0.259E-01    0.246E-01
DAV:  11    -0.480140088769E+03   -0.11607E-02   -0.21910E-03  5224   0.120E-01    0.895E-02
DAV:  12    -0.480140141796E+03   -0.53027E-04   -0.32080E-04  6088   0.457E-02    0.413E-02
DAV:  13    -0.480140157420E+03   -0.15624E-04   -0.11247E-04  5120   0.247E-02    0.106E-02
DAV:  14    -0.480140162145E+03   -0.47247E-05   -0.63914E-06  5624   0.598E-03    0.530E-03
DAV:  15    -0.480140164165E+03   -0.20203E-05   -0.26523E-06  5656   0.360E-03    0.403E-03
DAV:  16    -0.480140163819E+03    0.34602E-06   -0.36890E-07  5832   0.158E-03    0.128E-03
DAV:  17    -0.480140164157E+03   -0.33743E-06   -0.11709E-07  5168   0.750E-04    0.750E-04
DAV:  18    -0.480140164180E+03   -0.23563E-07   -0.81130E-09  2776   0.246E-04    0.273E-04
DAV:  19    -0.480140164165E+03    0.14843E-07   -0.93855E-09  2704   0.220E-04    0.118E-04
DAV:  20    -0.480140164176E+03   -0.10699E-07   -0.14519E-09  2688   0.112E-04    0.767E-05
DAV:  21    -0.480140164167E+03    0.93823E-08   -0.69949E-10  2688   0.554E-05
   1 F= -.48014016E+03 E0= -.48014371E+03  d E =0.106356E-01
