unknown system                          
           1
     8.743316    0.000000    0.000000
     0.000000    8.743316    0.000000
     0.000000    0.000000    8.743316
   C    Si
    32    32
Direct configuration=     1
   0.12154973  0.12535827  0.12121728
   0.11627768  0.37536645  0.37768406
   0.37074572  0.12044942  0.37902663
   0.38015892  0.37124698  0.12832571
   0.12162560  0.12242588  0.62572538
   0.12226870  0.37378459  0.87924431
   0.37325485  0.12285241  0.87712700
   0.37632110  0.37464796  0.62115495
   0.12279147  0.62735824  0.12190843
   0.12452174  0.87515725  0.36951131
   0.37276344  0.62163834  0.37493448
   0.37907008  0.87116479  0.12257906
   0.12483737  0.62368954  0.62628696
   0.13114509  0.87427359  0.87317313
   0.37183481  0.62371341  0.87279699
   0.37320240  0.87424479  0.62601669
   0.62825555  0.11981014  0.12450472
   0.62377897  0.37521821  0.37834999
   0.87558606  0.12346930  0.37169686
   0.87713791  0.36532703  0.12465855
   0.62680841  0.12194260  0.62268906
   0.62241528  0.37922724  0.87173918
   0.87517705  0.12337422  0.86987495
   0.87108619  0.37845132  0.61831396
   0.62333837  0.62871449  0.12392550
   0.63059442  0.88240862  0.37390103
   0.87576445  0.62648184  0.38148844
   0.88141297  0.87130148  0.12175833
   0.62682781  0.63143789  0.62847363
   0.62929491  0.87274789  0.87281551
   0.87728333  0.62733480  0.87879092
   0.87592125  0.87241916  0.62574360
   0.00181076  0.00151741  0.99792206
   0.00096190  0.25016009  0.25028197
   0.24291676  0.99753193  0.25238034
   0.24707019  0.25158952  0.00219354
   0.99725157  0.99875396  0.49733845
   0.99450901  0.24693553  0.75028812
   0.24896550  0.99948314  0.75017206
   0.24963856  0.25004189  0.49465555
   0.99257722  0.50923508  0.00050574
   0.00353989  0.74611377  0.25079244
   0.24386403  0.50362602  0.25302423
   0.25246697  0.75068612  0.00636037
   0.00223541  0.50174877  0.50386968
   0.99496674  0.74906961  0.75233511
   0.25315417  0.50171564  0.75262938
   0.25137100  0.74781307  0.50046753
   0.49940568  0.00059679  0.00019505
   0.49768439  0.24608411  0.25443318
   0.74861939  0.00091383  0.25379529
   0.75538582  0.25301879  0.99899642
   0.50327789  0.99788834  0.50469880
   0.50225785  0.24562806  0.74864841
   0.75126010  0.99921720  0.74804113
   0.74897877  0.25470063  0.50056586
   0.50502319  0.50418359  0.99544053
   0.50440239  0.75310054  0.25260535
   0.74924313  0.50269558  0.24549262
   0.74613398  0.75266729  0.99735330
   0.49956005  0.49509208  0.49931056
   0.49567484  0.75164227  0.74596837
   0.75125752  0.50161770  0.75373532
   0.74508581  0.75799812  0.50327687
