       N       E                     dE             d eps       ncg     rms          rms(c)
DAV:   1     0.672310974336E+03    0.67231E+03   -0.99588E+04  4704   0.111E+03
DAV:   2    -0.460266714152E+03   -0.11326E+04   -0.10728E+04  5816   0.221E+02
DAV:   3    -0.535733032684E+03   -0.75466E+02   -0.74741E+02  5688   0.563E+01
DAV:   4    -0.537419129803E+03   -0.16861E+01   -0.16791E+01  5744   0.910E+00
DAV:   5    -0.537463833511E+03   -0.44704E-01   -0.44633E-01  5576   0.142E+00    0.495E+01
DAV:   6    -0.479974390028E+03    0.57489E+02   -0.19201E+02  5352   0.237E+01    0.220E+01
DAV:   7    -0.478654465390E+03    0.13199E+01   -0.16459E+01  5832   0.729E+00    0.983E+00
DAV:   8    -0.478418596738E+03    0.23587E+00   -0.10853E+00  5408   0.207E+00    0.287E+00
DAV:   9    -0.478401886605E+03    0.16710E-01   -0.17256E-01  5480   0.929E-01    0.491E-01
DAV:  10    -0.478403840062E+03   -0.19535E-02   -0.17025E-02  5712   0.313E-01    0.282E-01
DAV:  11    -0.478405284233E+03   -0.14442E-02   -0.34056E-03  5272   0.144E-01    0.124E-01
DAV:  12    -0.478405481333E+03   -0.19710E-03   -0.54054E-04  5880   0.581E-02    0.485E-02
DAV:  13    -0.478405506492E+03   -0.25159E-04   -0.16692E-04  5144   0.289E-02    0.116E-02
DAV:  14    -0.478405509292E+03   -0.28000E-05   -0.69575E-06  5672   0.678E-03    0.602E-03
DAV:  15    -0.478405511113E+03   -0.18212E-05   -0.35612E-06  5624   0.418E-03    0.308E-03
DAV:  16    -0.478405511465E+03   -0.35136E-06   -0.45055E-07  6008   0.178E-03    0.121E-03
DAV:  17    -0.478405511831E+03   -0.36629E-06   -0.11977E-07  5184   0.785E-04    0.741E-04
DAV:  18    -0.478405511834E+03   -0.26012E-08   -0.62791E-09  2776   0.210E-04
   1 F= -.47840551E+03 E0= -.47840910E+03  d E =0.107549E-01
