<?xml version="1.0" encoding="ISO-8859-1"?>
<modeling>
 <generator>
  <i name="program" type="string">vasp </i>
  <i name="version" type="string">6.2.1  </i>
  <i name="subversion" type="string">16May21 (build Jun 06 2020 10:27:25) complex                          parallel </i>
  <i name="platform" type="string">LinuxIFC </i>
  <i name="date" type="string">2024 01 25 </i>
  <i name="time" type="string">17:10:10 </i>
 </generator>
 <incar>
  <i type="int" name="NELM">    60</i>
  <i type="int" name="IBRION">     1</i>
  <i name="EDIFF">      0.00000001</i>
  <i type="int" name="NSW">     0</i>
  <i type="int" name="ISIF">     3</i>
  <i type="int" name="ISYM">     0</i>
  <i type="logical" name="LWAVE"> F  </i>
  <i type="logical" name="LCHARG"> F  </i>
  <i type="string" name="GGA">PE</i>
 </incar>
 <primitive_cell>
  <structure name="primitive_cell" >
   <crystal>
    <varray name="basis" >
     <v>       8.74331558       0.00000000       0.00000000 </v>
     <v>       0.00000000       8.74331558       0.00000000 </v>
     <v>       0.00000000       0.00000000       8.74331558 </v>
    </varray>
    <i name="volume">    668.38771987 </i>
    <varray name="rec_basis" >
     <v>       0.11437309       0.00000000       0.00000000 </v>
     <v>       0.00000000       0.11437309       0.00000000 </v>
     <v>       0.00000000       0.00000000       0.11437309 </v>
    </varray>
   </crystal>
   <varray name="positions" >
    <v>       0.12609637       0.11917355       0.12779341 </v>
    <v>       0.12789877       0.37594198       0.37573797 </v>
    <v>       0.38027322       0.13268526       0.37004639 </v>
    <v>       0.37643746       0.36995005       0.13543079 </v>
    <v>       0.12327304       0.13577096       0.62343139 </v>
    <v>       0.12006936       0.37627180       0.87698114 </v>
    <v>       0.37450970       0.13099581       0.87928652 </v>
    <v>       0.37744916       0.37260561       0.62733526 </v>
    <v>       0.12592969       0.62606793       0.12735506 </v>
    <v>       0.13278018       0.87960568       0.37949444 </v>
    <v>       0.37831870       0.62284680       0.37125118 </v>
    <v>       0.37237828       0.87561649       0.13069879 </v>
    <v>       0.12351859       0.62234846       0.62541594 </v>
    <v>       0.13087541       0.87644706       0.87011689 </v>
    <v>       0.37597386       0.62106222       0.87242036 </v>
    <v>       0.37625857       0.87450059       0.62383348 </v>
    <v>       0.62288085       0.12685220       0.12280839 </v>
    <v>       0.62320860       0.37697012       0.37198572 </v>
    <v>       0.87738178       0.12190908       0.37260988 </v>
    <v>       0.87159176       0.36720375       0.12808885 </v>
    <v>       0.62169487       0.12731621       0.62441003 </v>
    <v>       0.60691168       0.37599488       0.87514861 </v>
    <v>       0.87726151       0.12201716       0.86987860 </v>
    <v>       0.87667442       0.37497059       0.62784070 </v>
    <v>       0.62813321       0.61700800       0.11930616 </v>
    <v>       0.63037703       0.88134120       0.37500265 </v>
    <v>       0.87809673       0.62456046       0.37807581 </v>
    <v>       0.86989343       0.86849630       0.12632149 </v>
    <v>       0.62820761       0.62459499       0.63056881 </v>
    <v>       0.62672221       0.86801529       0.87675711 </v>
    <v>       0.87755000       0.62416202       0.86963038 </v>
    <v>       0.87834911       0.87955971       0.62562933 </v>
    <v>       0.00481702       0.99435521       0.00617931 </v>
    <v>       0.00463383       0.25449822       0.25462683 </v>
    <v>       0.25021798       0.00601324       0.24996794 </v>
    <v>       0.25645954       0.25239977       0.99739318 </v>
    <v>       0.00242286       0.99258233       0.50064442 </v>
    <v>       0.00279873       0.25599981       0.75520341 </v>
    <v>       0.24540379       0.00256162       0.74818908 </v>
    <v>       0.24654489       0.24503347       0.49473456 </v>
    <v>       0.99339282       0.49534481       0.00428309 </v>
    <v>       0.99903467       0.74252374       0.25608327 </v>
    <v>       0.24976578       0.50030469       0.24747579 </v>
    <v>       0.24665081       0.74149632       0.99844623 </v>
    <v>       0.99512298       0.50268036       0.48996933 </v>
    <v>       0.00413193       0.75196528       0.74734964 </v>
    <v>       0.25262250       0.50398689       0.74599861 </v>
    <v>       0.25300712       0.74734969       0.51426318 </v>
    <v>       0.49646158       0.00491458       0.99624695 </v>
    <v>       0.49535845       0.24776504       0.25297848 </v>
    <v>       0.74802693       0.00586302       0.24877931 </v>
    <v>       0.74651424       0.24676842       0.00171718 </v>
    <v>       0.50093036       0.99540837       0.50052486 </v>
    <v>       0.50058359       0.25449311       0.74997752 </v>
    <v>       0.75237551       0.00485579       0.75303153 </v>
    <v>       0.75002626       0.25135324       0.49553786 </v>
    <v>       0.50922830       0.49730827       0.99829532 </v>
    <v>       0.49328980       0.74533132       0.25047174 </v>
    <v>       0.75107274       0.50919532       0.25405111 </v>
    <v>       0.74874274       0.75220520       0.00810229 </v>
    <v>       0.50067710       0.49498423       0.50114178 </v>
    <v>       0.49472077       0.75604898       0.74037989 </v>
    <v>       0.75105201       0.49849843       0.75172881 </v>
    <v>       0.75726286       0.75160493       0.50294860 </v>
   </varray>
  </structure>
  <varray name="primitive_index" >
   <v type="int" >        1 </v>
   <v type="int" >        2 </v>
   <v type="int" >        3 </v>
   <v type="int" >        4 </v>
   <v type="int" >        5 </v>
   <v type="int" >        6 </v>
   <v type="int" >        7 </v>
   <v type="int" >        8 </v>
   <v type="int" >        9 </v>
   <v type="int" >       10 </v>
   <v type="int" >       11 </v>
   <v type="int" >       12 </v>
   <v type="int" >       13 </v>
   <v type="int" >       14 </v>
   <v type="int" >       15 </v>
   <v type="int" >       16 </v>
   <v type="int" >       17 </v>
   <v type="int" >       18 </v>
   <v type="int" >       19 </v>
   <v type="int" >       20 </v>
   <v type="int" >       21 </v>
   <v type="int" >       22 </v>
   <v type="int" >       23 </v>
   <v type="int" >       24 </v>
   <v type="int" >       25 </v>
   <v type="int" >       26 </v>
   <v type="int" >       27 </v>
   <v type="int" >       28 </v>
   <v type="int" >       29 </v>
   <v type="int" >       30 </v>
   <v type="int" >       31 </v>
   <v type="int" >       32 </v>
   <v type="int" >       33 </v>
   <v type="int" >       34 </v>
   <v type="int" >       35 </v>
   <v type="int" >       36 </v>
   <v type="int" >       37 </v>
   <v type="int" >       38 </v>
   <v type="int" >       39 </v>
   <v type="int" >       40 </v>
   <v type="int" >       41 </v>
   <v type="int" >       42 </v>
   <v type="int" >       43 </v>
   <v type="int" >       44 </v>
   <v type="int" >       45 </v>
   <v type="int" >       46 </v>
   <v type="int" >       47 </v>
   <v type="int" >       48 </v>
   <v type="int" >       49 </v>
   <v type="int" >       50 </v>
   <v type="int" >       51 </v>
   <v type="int" >       52 </v>
   <v type="int" >       53 </v>
   <v type="int" >       54 </v>
   <v type="int" >       55 </v>
   <v type="int" >       56 </v>
   <v type="int" >       57 </v>
   <v type="int" >       58 </v>
   <v type="int" >       59 </v>
   <v type="int" >       60 </v>
   <v type="int" >       61 </v>
   <v type="int" >       62 </v>
   <v type="int" >       63 </v>
   <v type="int" >       64 </v>
  </varray>
 </primitive_cell>
 <kpoints>
  <generation param="Monkhorst-Pack">
   <v type="int" name="divisions">       3        3        3 </v>
   <v name="usershift">      0.00000000       0.00000000       0.00000000 </v>
   <v name="genvec1">      0.33333333       0.00000000       0.00000000 </v>
   <v name="genvec2">      0.00000000       0.33333333       0.00000000 </v>
   <v name="genvec3">      0.00000000       0.00000000       0.33333333 </v>
   <v name="shift">      0.00000000       0.00000000       0.00000000 </v>
  </generation>
  <varray name="kpointlist" >
   <v>       0.00000000       0.00000000       0.00000000 </v>
   <v>       0.33333333       0.00000000       0.00000000 </v>
   <v>       0.00000000       0.33333333       0.00000000 </v>
   <v>       0.00000000       0.00000000       0.33333333 </v>
   <v>       0.33333333       0.33333333       0.00000000 </v>
   <v>       0.00000000       0.33333333       0.33333333 </v>
   <v>       0.33333333       0.00000000       0.33333333 </v>
   <v>      -0.33333333       0.33333333       0.00000000 </v>
   <v>      -0.33333333       0.00000000       0.33333333 </v>
   <v>       0.00000000      -0.33333333       0.33333333 </v>
   <v>       0.33333333       0.33333333       0.33333333 </v>
   <v>      -0.33333333       0.33333333       0.33333333 </v>
   <v>      -0.33333333      -0.33333333       0.33333333 </v>
   <v>       0.33333333      -0.33333333       0.33333333 </v>
  </varray>
  <varray name="weights" >
   <v>       0.03703704 </v>
   <v>       0.07407407 </v>
   <v>       0.07407407 </v>
   <v>       0.07407407 </v>
   <v>       0.07407407 </v>
   <v>       0.07407407 </v>
   <v>       0.07407407 </v>
   <v>       0.07407407 </v>
   <v>       0.07407407 </v>
   <v>       0.07407407 </v>
   <v>       0.07407407 </v>
   <v>       0.07407407 </v>
   <v>       0.07407407 </v>
   <v>       0.07407407 </v>
  </varray>
 </kpoints>
 <parameters>
  <separator name="general" >
   <i type="string" name="SYSTEM">unknown system</i>
   <i type="logical" name="LCOMPAT"> F  </i>
  </separator>
  <separator name="electronic" >
   <i type="string" name="PREC">normal</i>
   <i name="ENMAX">    400.00000000</i>
   <i name="ENAUG">    644.87300000</i>
   <i name="EDIFF">      0.00000001</i>
   <i type="int" name="IALGO">    38</i>
   <i type="int" name="IWAVPR">    10</i>
   <i type="int" name="NBANDS">   168</i>
   <i type="int" name="NBANDSLOW">    -1</i>
   <i type="int" name="NBANDSHIGH">    -1</i>
   <i name="NELECT">    256.00000000</i>
   <i type="int" name="TURBO">     0</i>
   <i type="int" name="IRESTART">     0</i>
   <i type="int" name="NREBOOT">     0</i>
   <i type="int" name="NMIN">     0</i>
   <i name="EREF">      0.00000000</i>
   <separator name="electronic smearing" >
    <i type="int" name="ISMEAR">     1</i>
    <i name="SIGMA">      0.20000000</i>
    <i name="KSPACING">      0.50000000</i>
    <i type="logical" name="KGAMMA"> T  </i>
    <i type="logical" name="KBLOWUP"> T  </i>
   </separator>
   <separator name="electronic projectors" >
    <i type="logical" name="LREAL"> F  </i>
    <v name="ROPT">      0.00000000      0.00000000</v>
    <i type="int" name="LMAXPAW">  -100</i>
    <i type="int" name="LMAXMIX">     2</i>
    <i type="logical" name="NLSPLINE"> F  </i>
   </separator>
   <separator name="electronic startup" >
    <i type="int" name="ISTART">     0</i>
    <i type="int" name="ICHARG">     2</i>
    <i type="int" name="INIWAV">     1</i>
   </separator>
   <separator name="electronic spin" >
    <i type="int" name="ISPIN">     1</i>
    <i type="logical" name="LNONCOLLINEAR"> F  </i>
    <v name="MAGMOM">      1.00000000      1.00000000      1.00000000      1.00000000      1.00000000      1.00000000      1.00000000      1.00000000      1.00000000      1.00000000      1.00000000      1.00000000      1.00000000      1.00000000      1.00000000      1.00000000      1.00000000      1.00000000      1.00000000      1.00000000
      1.00000000      1.00000000      1.00000000      1.00000000      1.00000000      1.00000000      1.00000000      1.00000000      1.00000000      1.00000000      1.00000000      1.00000000      1.00000000      1.00000000      1.00000000      1.00000000      1.00000000      1.00000000      1.00000000      1.00000000
      1.00000000      1.00000000      1.00000000      1.00000000      1.00000000      1.00000000      1.00000000      1.00000000      1.00000000      1.00000000      1.00000000      1.00000000      1.00000000      1.00000000      1.00000000      1.00000000      1.00000000      1.00000000      1.00000000      1.00000000
      1.00000000      1.00000000      1.00000000      1.00000000</v>
    <i name="NUPDOWN">     -1.00000000</i>
    <i type="logical" name="LSORBIT"> F  </i>
    <v name="SAXIS">      0.00000000      0.00000000      1.00000000</v>
    <i type="logical" name="LSPIRAL"> F  </i>
    <v name="QSPIRAL">      0.00000000      0.00000000      0.00000000</v>
    <i type="logical" name="LZEROZ"> F  </i>
   </separator>
   <separator name="electronic exchange-correlation" >
    <i type="logical" name="LASPH"> F  </i>
    <i type="logical" name="LMETAGGA"> F  </i>
   </separator>
   <separator name="electronic convergence" >
    <i type="int" name="NELM">    60</i>
    <i type="int" name="NELMDL">    -5</i>
    <i type="int" name="NELMIN">     2</i>
    <i name="ENINI">    400.00000000</i>
    <separator name="electronic convergence detail" >
     <i type="logical" name="LDIAG"> T  </i>
     <i type="logical" name="LSUBROT"> F  </i>
     <i name="WEIMIN">      0.00000000</i>
     <i name="EBREAK">      0.00000000</i>
     <i name="DEPER">      0.30000000</i>
     <i type="int" name="NRMM">     4</i>
     <i name="TIME">      0.40000000</i>
    </separator>
   </separator>
   <separator name="electronic mixer" >
    <i name="AMIX">      0.40000000</i>
    <i name="BMIX">      1.00000000</i>
    <i name="AMIN">      0.10000000</i>
    <i name="AMIX_MAG">      1.60000000</i>
    <i name="BMIX_MAG">      1.00000000</i>
    <separator name="electronic mixer details" >
     <i type="int" name="IMIX">     4</i>
     <i type="logical" name="MIXFIRST"> F  </i>
     <i type="int" name="MAXMIX">   -45</i>
     <i name="WC">    100.00000000</i>
     <i type="int" name="INIMIX">     1</i>
     <i type="int" name="MIXPRE">     1</i>
     <i type="int" name="MREMOVE">     5</i>
    </separator>
   </separator>
   <separator name="electronic dipolcorrection" >
    <i type="logical" name="LDIPOL"> F  </i>
    <i type="logical" name="LMONO"> F  </i>
    <i type="int" name="IDIPOL">     0</i>
    <i name="EPSILON">      1.00000000</i>
    <v name="DIPOL">   -100.00000000   -100.00000000   -100.00000000</v>
    <i name="EFIELD">      0.00000000</i>
   </separator>
  </separator>
  <separator name="grids" >
   <i type="int" name="NGX">    48</i>
   <i type="int" name="NGY">    48</i>
   <i type="int" name="NGZ">    48</i>
   <i type="int" name="NGXF">    96</i>
   <i type="int" name="NGYF">    96</i>
   <i type="int" name="NGZF">    96</i>
   <i type="logical" name="ADDGRID"> F  </i>
  </separator>
  <separator name="ionic" >
   <i type="int" name="NSW">     0</i>
   <i type="int" name="IBRION">    -1</i>
   <i type="int" name="MDALGO">     0</i>
   <i type="int" name="ISIF">     3</i>
   <i name="PSTRESS">      0.00000000</i>
   <i name="EDIFFG">      0.00000010</i>
   <i type="int" name="NFREE">     0</i>
   <i name="POTIM">      0.50000000</i>
   <i name="SMASS">     -3.00000000</i>
   <i name="SCALEE">      1.00000000</i>
  </separator>
  <separator name="ionic md" >
   <i name="TEBEG">      0.00010000</i>
   <i name="TEEND">      0.00010000</i>
   <i type="int" name="NBLOCK">     1</i>
   <i type="int" name="KBLOCK">     1</i>
   <i type="int" name="NPACO">   256</i>
   <i name="APACO">     16.00000000</i>
  </separator>
  <separator name="symmetry" >
   <i type="int" name="ISYM">     0</i>
   <i name="SYMPREC">      0.00001000</i>
  </separator>
  <separator name="dos" >
   <i type="int" name="LORBIT">     0</i>
   <v name="RWIGS">     -1.00000000     -1.00000000</v>
   <i type="int" name="NEDOS">   301</i>
   <i name="EMIN">     10.00000000</i>
   <i name="EMAX">    -10.00000000</i>
   <i name="EFERMI">      0.00000000</i>
  </separator>
  <separator name="writing" >
   <i type="int" name="NWRITE">     2</i>
   <i type="logical" name="LWAVE"> F  </i>
   <i type="logical" name="LDOWNSAMPLE"> F  </i>
   <i type="logical" name="LCHARG"> F  </i>
   <i type="logical" name="LPARD"> F  </i>
   <i type="logical" name="LVTOT"> F  </i>
   <i type="logical" name="LVHAR"> F  </i>
   <i type="logical" name="LELF"> F  </i>
   <i type="logical" name="LOPTICS"> F  </i>
   <v name="STM">      0.00000000      0.00000000      0.00000000      0.00000000      0.00000000      0.00000000      0.00000000</v>
  </separator>
  <separator name="performance" >
   <i type="int" name="NPAR">     8</i>
   <i type="int" name="NSIM">     4</i>
   <i type="int" name="NBLK">    -1</i>
   <i type="logical" name="LPLANE"> T  </i>
   <i type="logical" name="LSCALAPACK"> T  </i>
   <i type="logical" name="LSCAAWARE"> F  </i>
   <i type="logical" name="LSCALU"> F  </i>
   <i type="logical" name="LASYNC"> F  </i>
   <i type="logical" name="LORBITALREAL"> F  </i>
  </separator>
  <separator name="miscellaneous" >
   <i type="int" name="IDIOT">     3</i>
   <i type="int" name="PHON_NSTRUCT">    -1</i>
   <i type="logical" name="LMUSIC"> F  </i>
   <v name="POMASS">     12.01100000     28.08500000</v>
   <v name="DARWINR">      0.00000000      0.00000000</v>
   <v name="DARWINV">      1.00000000      1.00000000</v>
   <i type="logical" name="LCORR"> T  </i>
  </separator>
  <i type="logical" name="GGA_COMPAT"> T  </i>
  <i type="logical" name="LBERRY"> F  </i>
  <i type="int" name="ICORELEVEL">     0</i>
  <i type="logical" name="LDAU"> F  </i>
  <i type="int" name="I_CONSTRAINED_M">     0</i>
  <separator name="electronic exchange-correlation" >
   <i type="string" name="GGA">PE</i>
   <i type="int" name="VOSKOWN">     0</i>
   <i type="logical" name="LHFCALC"> F  </i>
   <i type="string" name="PRECFOCK"></i>
   <i type="logical" name="LSYMGRAD"> F  </i>
   <i type="logical" name="LHFONE"> F  </i>
   <i type="logical" name="LRHFCALC"> F  </i>
   <i type="logical" name="LTHOMAS"> F  </i>
   <i type="logical" name="LMODELHF"> F  </i>
   <i type="logical" name="LFOCKACE"> F  </i>
   <i name="ENCUT4O">     -1.00000000</i>
   <i type="int" name="EXXOEP">     0</i>
   <i type="int" name="FOURORBIT">     0</i>
   <i name="AEXX">      0.00000000</i>
   <i name="HFALPHA">      0.00000000</i>
   <i name="MCALPHA">      0.00000000</i>
   <i name="ALDAX">      1.00000000</i>
   <i name="AGGAX">      1.00000000</i>
   <i name="ALDAC">      1.00000000</i>
   <i name="AGGAC">      1.00000000</i>
   <i type="int" name="NKREDX">     1</i>
   <i type="int" name="NKREDY">     1</i>
   <i type="int" name="NKREDZ">     1</i>
   <i type="logical" name="SHIFTRED"> F  </i>
   <i type="logical" name="ODDONLY"> F  </i>
   <i type="logical" name="EVENONLY"> F  </i>
   <i type="int" name="LMAXFOCK">     0</i>
   <i type="int" name="NMAXFOCKAE">     0</i>
   <i type="logical" name="LFOCKAEDFT"> F  </i>
   <i name="HFSCREEN">      0.00000000</i>
   <i name="HFSCREENC">      0.00000000</i>
   <i type="int" name="NBANDSGWLOW">     0</i>
  </separator>
  <separator name="vdW DFT" >
   <i type="logical" name="LUSE_VDW"> F  </i>
   <i name="Zab_VDW">     -0.84910000</i>
   <i name="PARAM1">      0.12340000</i>
   <i name="PARAM2">      1.00000000</i>
   <i name="PARAM3">      0.00000000</i>
  </separator>
  <separator name="model GW" >
   <i type="int" name="MODEL_GW">     0</i>
   <i name="MODEL_EPS0">      6.26613487</i>
   <i name="MODEL_ALPHA">      1.00000000</i>
  </separator>
  <separator name="linear response parameters" >
   <i type="logical" name="LEPSILON"> F  </i>
   <i type="logical" name="LRPA"> F  </i>
   <i type="logical" name="LNABLA"> F  </i>
   <i type="logical" name="LVEL"> F  </i>
   <i type="int" name="KINTER">     0</i>
   <i name="CSHIFT">      0.10000000</i>
   <i name="OMEGAMAX">     -1.00000000</i>
   <i name="DEG_THRESHOLD">      0.00200000</i>
   <i name="RTIME">     -0.10000000</i>
   <i name="WPLASMAI">      0.00000000</i>
   <v name="DFIELD">      0.00000000      0.00000000      0.00000000</v>
   <v name="WPLASMA">      0.00000000      0.00000000      0.00000000      0.00000000      0.00000000      0.00000000      0.00000000      0.00000000      0.00000000</v>
  </separator>
  <separator name="orbital magnetization" >
   <i type="logical" name="NUCIND"> F  </i>
   <v name="MAGPOS">      0.00000000      0.00000000      0.00000000</v>
   <i type="logical" name="LNICSALL"> T  </i>
   <i type="logical" name="ORBITALMAG"> F  </i>
   <i type="logical" name="LMAGBLOCH"> F  </i>
   <i type="logical" name="LCHIMAG"> F  </i>
   <i type="logical" name="LGAUGE"> T  </i>
   <i type="int" name="MAGATOM">     0</i>
   <v name="MAGDIPOL">      0.00000000      0.00000000      0.00000000</v>
   <v name="AVECCONST">      0.00000000      0.00000000      0.00000000</v>
  </separator>
  <separator name="response functions" >
   <i type="logical" name="LFINITE_TEMPERATURE"> F  </i>
   <i type="logical" name="LADDER"> F  </i>
   <i type="logical" name="LRPAFORCE"> F  </i>
   <i type="logical" name="LFXC"> F  </i>
   <i type="logical" name="LHARTREE"> T  </i>
   <i type="int" name="IBSE">     0</i>
   <v type="int" name="KPOINT">    -1     0     0     0</v>
   <i type="logical" name="LTCTC"> F  </i>
   <i type="logical" name="LTCTE"> F  </i>
   <i type="logical" name="LTETE"> F  </i>
   <i type="logical" name="LTRIPLET"> F  </i>
   <i type="logical" name="LFXCEPS"> F  </i>
   <i type="logical" name="LFXHEG"> F  </i>
   <i type="int" name="NATURALO">     2</i>
   <i type="logical" name="LHOLEGF"> F  </i>
   <i type="logical" name="L2ORDER"> F  </i>
   <i type="logical" name="LDMP1"> F  </i>
   <i type="logical" name="LMP2LT"> F  </i>
   <i type="logical" name="LSMP2LT"> F  </i>
   <i type="logical" name="LGWLF"> F  </i>
   <i name="ENCUTGW">     -2.00000000</i>
   <i name="ENCUTGWSOFT">     -2.00000000</i>
   <i name="ENCUTLF">     -1.00000000</i>
   <i type="logical" name="LESF_SPLINES"> F  </i>
   <i type="int" name="LMAXMP2">    -1</i>
   <i name="SCISSOR">      0.00000000</i>
   <i type="int" name="NOMEGA">     0</i>
   <i type="int" name="NOMEGAR">     0</i>
   <i type="int" name="NBANDSGW">    -1</i>
   <i type="int" name="NBANDSO">    -1</i>
   <i type="int" name="NBANDSV">    -1</i>
   <i type="int" name="NELM">    60</i>
   <i type="int" name="NELMHF">     1</i>
   <i type="int" name="DIM">     3</i>
   <i type="int" name="IESPILON">     4</i>
   <i type="int" name="ANTIRES">     0</i>
   <i name="OMEGAMAX">    -30.00000000</i>
   <i name="OMEGAMIN">    -30.00000000</i>
   <i name="OMEGATL">   -200.00000000</i>
   <i type="int" name="OMEGAGRID">     0</i>
   <i name="CSHIFT">     -0.10000000</i>
   <i type="logical" name="LSELFENERGY"> F  </i>
   <i type="logical" name="LSPECTRAL"> F  </i>
   <i type="logical" name="LSPECTRALGW"> F  </i>
   <i type="logical" name="LSINGLES"> F  </i>
   <i type="logical" name="LFERMIGW"> F  </i>
   <i type="logical" name="ODDONLYGW"> F  </i>
   <i type="logical" name="EVENONLYGW"> F  </i>
   <i type="int" name="NKREDLFX">     1</i>
   <i type="int" name="NKREDLFY">     1</i>
   <i type="int" name="NKREDLFZ">     1</i>
   <i type="int" name="MAXMEM">  2800</i>
   <i type="int" name="TELESCOPE">     0</i>
   <i type="int" name="NTAUPAR">    -1</i>
   <i type="int" name="NOMEGAPAR">    -1</i>
   <i name="DAMP_NEWTON">      0.80000001</i>
   <i name="LAMBDA">      1.00000000</i>
  </separator>
  <separator name="External order field" >
   <i name="OFIELD_KAPPA">      0.00000000</i>
   <v name="OFIELD_K">      0.00000000      0.00000000      0.00000000</v>
   <i name="OFIELD_Q6_NEAR">      0.00000000</i>
   <i name="OFIELD_Q6_FAR">      0.00000000</i>
   <i name="OFIELD_A">      0.00000000</i>
  </separator>
 </parameters>
 <atominfo>
  <atoms>      64 </atoms>
  <types>       2 </types>
  <array name="atoms" >
   <dimension dim="1">ion</dimension>
   <field type="string">element</field>
   <field type="int">atomtype</field>
   <set>
    <rc><c>C </c><c>   1</c></rc>
    <rc><c>C </c><c>   1</c></rc>
    <rc><c>C </c><c>   1</c></rc>
    <rc><c>C </c><c>   1</c></rc>
    <rc><c>C </c><c>   1</c></rc>
    <rc><c>C </c><c>   1</c></rc>
    <rc><c>C </c><c>   1</c></rc>
    <rc><c>C </c><c>   1</c></rc>
    <rc><c>C </c><c>   1</c></rc>
    <rc><c>C </c><c>   1</c></rc>
    <rc><c>C </c><c>   1</c></rc>
    <rc><c>C </c><c>   1</c></rc>
    <rc><c>C </c><c>   1</c></rc>
    <rc><c>C </c><c>   1</c></rc>
    <rc><c>C </c><c>   1</c></rc>
    <rc><c>C </c><c>   1</c></rc>
    <rc><c>C </c><c>   1</c></rc>
    <rc><c>C </c><c>   1</c></rc>
    <rc><c>C </c><c>   1</c></rc>
    <rc><c>C </c><c>   1</c></rc>
    <rc><c>C </c><c>   1</c></rc>
    <rc><c>C </c><c>   1</c></rc>
    <rc><c>C </c><c>   1</c></rc>
    <rc><c>C </c><c>   1</c></rc>
    <rc><c>C </c><c>   1</c></rc>
    <rc><c>C </c><c>   1</c></rc>
    <rc><c>C </c><c>   1</c></rc>
    <rc><c>C </c><c>   1</c></rc>
    <rc><c>C </c><c>   1</c></rc>
    <rc><c>C </c><c>   1</c></rc>
    <rc><c>C </c><c>   1</c></rc>
    <rc><c>C </c><c>   1</c></rc>
    <rc><c>Si</c><c>   2</c></rc>
    <rc><c>Si</c><c>   2</c></rc>
    <rc><c>Si</c><c>   2</c></rc>
    <rc><c>Si</c><c>   2</c></rc>
    <rc><c>Si</c><c>   2</c></rc>
    <rc><c>Si</c><c>   2</c></rc>
    <rc><c>Si</c><c>   2</c></rc>
    <rc><c>Si</c><c>   2</c></rc>
    <rc><c>Si</c><c>   2</c></rc>
    <rc><c>Si</c><c>   2</c></rc>
    <rc><c>Si</c><c>   2</c></rc>
    <rc><c>Si</c><c>   2</c></rc>
    <rc><c>Si</c><c>   2</c></rc>
    <rc><c>Si</c><c>   2</c></rc>
    <rc><c>Si</c><c>   2</c></rc>
    <rc><c>Si</c><c>   2</c></rc>
    <rc><c>Si</c><c>   2</c></rc>
    <rc><c>Si</c><c>   2</c></rc>
    <rc><c>Si</c><c>   2</c></rc>
    <rc><c>Si</c><c>   2</c></rc>
    <rc><c>Si</c><c>   2</c></rc>
    <rc><c>Si</c><c>   2</c></rc>
    <rc><c>Si</c><c>   2</c></rc>
    <rc><c>Si</c><c>   2</c></rc>
    <rc><c>Si</c><c>   2</c></rc>
    <rc><c>Si</c><c>   2</c></rc>
    <rc><c>Si</c><c>   2</c></rc>
    <rc><c>Si</c><c>   2</c></rc>
    <rc><c>Si</c><c>   2</c></rc>
    <rc><c>Si</c><c>   2</c></rc>
    <rc><c>Si</c><c>   2</c></rc>
    <rc><c>Si</c><c>   2</c></rc>
   </set>
  </array>
  <array name="atomtypes" >
   <dimension dim="1">type</dimension>
   <field type="int">atomspertype</field>
   <field type="string">element</field>
   <field>mass</field>
   <field>valence</field>
   <field type="string">pseudopotential</field>
   <set>
    <rc><c>  32</c><c>C </c><c>     12.01100000</c><c>      4.00000000</c><c>  PAW_PBE C 08Apr2002                   </c></rc>
    <rc><c>  32</c><c>Si</c><c>     28.08500000</c><c>      4.00000000</c><c>  PAW_PBE Si 05Jan2001                  </c></rc>
   </set>
  </array>
 </atominfo>
 <structure name="initialpos" >
  <crystal>
   <varray name="basis" >
    <v>       8.74331558       0.00000000       0.00000000 </v>
    <v>       0.00000000       8.74331558       0.00000000 </v>
    <v>       0.00000000       0.00000000       8.74331558 </v>
   </varray>
   <i name="volume">    668.38771987 </i>
   <varray name="rec_basis" >
    <v>       0.11437309       0.00000000       0.00000000 </v>
    <v>       0.00000000       0.11437309       0.00000000 </v>
    <v>       0.00000000       0.00000000       0.11437309 </v>
   </varray>
  </crystal>
  <varray name="positions" >
   <v>       0.12609637       0.11917355       0.12779341 </v>
   <v>       0.12789877       0.37594198       0.37573797 </v>
   <v>       0.38027322       0.13268526       0.37004639 </v>
   <v>       0.37643746       0.36995005       0.13543079 </v>
   <v>       0.12327304       0.13577096       0.62343139 </v>
   <v>       0.12006936       0.37627180       0.87698114 </v>
   <v>       0.37450970       0.13099581       0.87928652 </v>
   <v>       0.37744916       0.37260561       0.62733526 </v>
   <v>       0.12592969       0.62606793       0.12735506 </v>
   <v>       0.13278018       0.87960568       0.37949444 </v>
   <v>       0.37831870       0.62284680       0.37125118 </v>
   <v>       0.37237828       0.87561649       0.13069879 </v>
   <v>       0.12351859       0.62234846       0.62541594 </v>
   <v>       0.13087541       0.87644706       0.87011689 </v>
   <v>       0.37597386       0.62106222       0.87242036 </v>
   <v>       0.37625857       0.87450059       0.62383348 </v>
   <v>       0.62288085       0.12685220       0.12280839 </v>
   <v>       0.62320860       0.37697012       0.37198572 </v>
   <v>       0.87738178       0.12190908       0.37260988 </v>
   <v>       0.87159176       0.36720375       0.12808885 </v>
   <v>       0.62169487       0.12731621       0.62441003 </v>
   <v>       0.60691168       0.37599488       0.87514861 </v>
   <v>       0.87726151       0.12201716       0.86987860 </v>
   <v>       0.87667442       0.37497059       0.62784070 </v>
   <v>       0.62813321       0.61700800       0.11930616 </v>
   <v>       0.63037703       0.88134120       0.37500265 </v>
   <v>       0.87809673       0.62456046       0.37807581 </v>
   <v>       0.86989343       0.86849630       0.12632149 </v>
   <v>       0.62820761       0.62459499       0.63056881 </v>
   <v>       0.62672221       0.86801529       0.87675711 </v>
   <v>       0.87755000       0.62416202       0.86963038 </v>
   <v>       0.87834911       0.87955971       0.62562933 </v>
   <v>       0.00481702       0.99435521       0.00617931 </v>
   <v>       0.00463383       0.25449822       0.25462683 </v>
   <v>       0.25021798       0.00601324       0.24996794 </v>
   <v>       0.25645954       0.25239977       0.99739318 </v>
   <v>       0.00242286       0.99258233       0.50064442 </v>
   <v>       0.00279873       0.25599981       0.75520341 </v>
   <v>       0.24540379       0.00256162       0.74818908 </v>
   <v>       0.24654489       0.24503347       0.49473456 </v>
   <v>       0.99339282       0.49534481       0.00428309 </v>
   <v>       0.99903467       0.74252374       0.25608327 </v>
   <v>       0.24976578       0.50030469       0.24747579 </v>
   <v>       0.24665081       0.74149632       0.99844623 </v>
   <v>       0.99512298       0.50268036       0.48996933 </v>
   <v>       0.00413193       0.75196528       0.74734964 </v>
   <v>       0.25262250       0.50398689       0.74599861 </v>
   <v>       0.25300712       0.74734969       0.51426318 </v>
   <v>       0.49646158       0.00491458       0.99624695 </v>
   <v>       0.49535845       0.24776504       0.25297848 </v>
   <v>       0.74802693       0.00586302       0.24877931 </v>
   <v>       0.74651424       0.24676842       0.00171718 </v>
   <v>       0.50093036       0.99540837       0.50052486 </v>
   <v>       0.50058359       0.25449311       0.74997752 </v>
   <v>       0.75237551       0.00485579       0.75303153 </v>
   <v>       0.75002626       0.25135324       0.49553786 </v>
   <v>       0.50922830       0.49730827       0.99829532 </v>
   <v>       0.49328980       0.74533132       0.25047174 </v>
   <v>       0.75107274       0.50919532       0.25405111 </v>
   <v>       0.74874274       0.75220520       0.00810229 </v>
   <v>       0.50067710       0.49498423       0.50114178 </v>
   <v>       0.49472077       0.75604898       0.74037989 </v>
   <v>       0.75105201       0.49849843       0.75172881 </v>
   <v>       0.75726286       0.75160493       0.50294860 </v>
  </varray>
 </structure>
 <calculation>
  <scstep>
   <time name="dav">   16.05   16.08</time>
   <time name="total">   16.12   16.15</time>
   <energy>
    <i name="alphaZ">    354.85177120 </i>
    <i name="ewald">  -9071.24635667 </i>
    <i name="hartreedc">   -676.45474624 </i>
    <i name="XCdc">    145.93479799 </i>
    <i name="pawpsdc">   6292.66707184 </i>
    <i name="pawaedc">  -5747.90303932 </i>
    <i name="eentropy">      0.01488385 </i>
    <i name="bandstr">   1368.27154849 </i>
    <i name="atom">   8006.17504320 </i>
    <i name="e_fr_energy">    672.31097434 </i>
    <i name="e_wo_entrp">    672.29609049 </i>
    <i name="e_0_energy">    672.30601305 </i>
   </energy>
  </scstep>
  <scstep>
   <time name="dav">   19.68   19.78</time>
   <time name="total">   19.68   19.78</time>
   <energy>
    <i name="e_fr_energy">   -460.26671415 </i>
    <i name="e_wo_entrp">   -460.28157400 </i>
    <i name="e_0_energy">   -460.27166743 </i>
   </energy>
  </scstep>
  <scstep>
   <time name="dav">   16.44   16.53</time>
   <time name="total">   16.45   16.53</time>
   <energy>
    <i name="e_fr_energy">   -535.73303268 </i>
    <i name="e_wo_entrp">   -535.75885474 </i>
    <i name="e_0_energy">   -535.74164004 </i>
   </energy>
  </scstep>
  <scstep>
   <time name="dav">   15.73   15.78</time>
   <time name="total">   15.73   15.78</time>
   <energy>
    <i name="e_fr_energy">   -537.41912980 </i>
    <i name="e_wo_entrp">   -537.44563892 </i>
    <i name="e_0_energy">   -537.42796617 </i>
   </energy>
  </scstep>
  <scstep>
   <time name="dav">   15.20   15.22</time>
   <time name="total">   15.43   15.46</time>
   <energy>
    <i name="e_fr_energy">   -537.46383351 </i>
    <i name="e_wo_entrp">   -537.49024279 </i>
    <i name="e_0_energy">   -537.47263660 </i>
   </energy>
  </scstep>
  <scstep>
   <time name="dav">   14.72   14.74</time>
   <time name="total">   15.05   15.12</time>
   <energy>
    <i name="e_fr_energy">   -479.97439003 </i>
    <i name="e_wo_entrp">   -479.98661584 </i>
    <i name="e_0_energy">   -479.97846530 </i>
   </energy>
  </scstep>
  <scstep>
   <time name="dav">   15.98   16.01</time>
   <time name="total">   16.55   16.59</time>
   <energy>
    <i name="e_fr_energy">   -478.65446539 </i>
    <i name="e_wo_entrp">   -478.66510223 </i>
    <i name="e_0_energy">   -478.65801100 </i>
   </energy>
  </scstep>
  <scstep>
   <time name="dav">   15.41   15.43</time>
   <time name="total">   16.09   16.13</time>
   <energy>
    <i name="e_fr_energy">   -478.41859674 </i>
    <i name="e_wo_entrp">   -478.42949440 </i>
    <i name="e_0_energy">   -478.42222929 </i>
   </energy>
  </scstep>
  <scstep>
   <time name="dav">   14.97   15.00</time>
   <time name="total">   15.32   15.35</time>
   <energy>
    <i name="e_fr_energy">   -478.40188660 </i>
    <i name="e_wo_entrp">   -478.41264751 </i>
    <i name="e_0_energy">   -478.40547357 </i>
   </energy>
  </scstep>
  <scstep>
   <time name="dav">   15.45   15.49</time>
   <time name="total">   16.19   16.27</time>
   <energy>
    <i name="e_fr_energy">   -478.40384006 </i>
    <i name="e_wo_entrp">   -478.41459775 </i>
    <i name="e_0_energy">   -478.40742596 </i>
   </energy>
  </scstep>
  <scstep>
   <time name="dav">   14.64   14.67</time>
   <time name="total">   15.36   15.40</time>
   <energy>
    <i name="e_fr_energy">   -478.40528423 </i>
    <i name="e_wo_entrp">   -478.41604115 </i>
    <i name="e_0_energy">   -478.40886987 </i>
   </energy>
  </scstep>
  <scstep>
   <time name="dav">   15.75   15.81</time>
   <time name="total">   16.12   16.19</time>
   <energy>
    <i name="e_fr_energy">   -478.40548133 </i>
    <i name="e_wo_entrp">   -478.41623400 </i>
    <i name="e_0_energy">   -478.40906555 </i>
   </energy>
  </scstep>
  <scstep>
   <time name="dav">   14.22   14.27</time>
   <time name="total">   14.59   14.63</time>
   <energy>
    <i name="e_fr_energy">   -478.40550649 </i>
    <i name="e_wo_entrp">   -478.41626227 </i>
    <i name="e_0_energy">   -478.40909175 </i>
   </energy>
  </scstep>
  <scstep>
   <time name="dav">   15.46   15.49</time>
   <time name="total">   16.00   16.06</time>
   <energy>
    <i name="e_fr_energy">   -478.40550929 </i>
    <i name="e_wo_entrp">   -478.41626428 </i>
    <i name="e_0_energy">   -478.40909429 </i>
   </energy>
  </scstep>
  <scstep>
   <time name="dav">   15.29   15.32</time>
   <time name="total">   15.74   15.78</time>
   <energy>
    <i name="e_fr_energy">   -478.40551111 </i>
    <i name="e_wo_entrp">   -478.41626597 </i>
    <i name="e_0_energy">   -478.40909606 </i>
   </energy>
  </scstep>
  <scstep>
   <time name="dav">   17.43   17.46</time>
   <time name="total">   17.80   17.85</time>
   <energy>
    <i name="e_fr_energy">   -478.40551146 </i>
    <i name="e_wo_entrp">   -478.41626644 </i>
    <i name="e_0_energy">   -478.40909646 </i>
   </energy>
  </scstep>
  <scstep>
   <time name="dav">   14.36   14.39</time>
   <time name="total">   14.71   14.74</time>
   <energy>
    <i name="e_fr_energy">   -478.40551183 </i>
    <i name="e_wo_entrp">   -478.41626671 </i>
    <i name="e_0_energy">   -478.40909679 </i>
   </energy>
  </scstep>
  <scstep>
   <time name="dav">   10.88   10.89</time>
   <time name="total">   10.98   11.04</time>
   <energy>
    <i name="alphaZ">    354.85177120 </i>
    <i name="ewald">  -9071.24635667 </i>
    <i name="hartreedc">  -1030.37363290 </i>
    <i name="XCdc">    179.41056780 </i>
    <i name="pawpsdc">  33299.13662637 </i>
    <i name="pawaedc"> -32760.16100416 </i>
    <i name="eentropy">      0.01075487 </i>
    <i name="bandstr">    543.79071846 </i>
    <i name="atom">   8006.17504320 </i>
    <i name="e_fr_energy">   -478.40551183 </i>
    <i name="e_wo_entrp">   -478.41626670 </i>
    <i name="e_0_energy">   -478.40909679 </i>
   </energy>
  </scstep>
  <structure>
   <crystal>
    <varray name="basis" >
     <v>       8.74331558       0.00000000       0.00000000 </v>
     <v>       0.00000000       8.74331558       0.00000000 </v>
     <v>       0.00000000       0.00000000       8.74331558 </v>
    </varray>
    <i name="volume">    668.38771987 </i>
    <varray name="rec_basis" >
     <v>       0.11437309       0.00000000       0.00000000 </v>
     <v>       0.00000000       0.11437309       0.00000000 </v>
     <v>       0.00000000       0.00000000       0.11437309 </v>
    </varray>
   </crystal>
   <varray name="positions" >
    <v>       0.12609637       0.11917355       0.12779341 </v>
    <v>       0.12789877       0.37594198       0.37573797 </v>
    <v>       0.38027322       0.13268526       0.37004639 </v>
    <v>       0.37643746       0.36995005       0.13543079 </v>
    <v>       0.12327304       0.13577096       0.62343139 </v>
    <v>       0.12006936       0.37627180       0.87698114 </v>
    <v>       0.37450970       0.13099581       0.87928652 </v>
    <v>       0.37744916       0.37260561       0.62733526 </v>
    <v>       0.12592969       0.62606793       0.12735506 </v>
    <v>       0.13278018       0.87960568       0.37949444 </v>
    <v>       0.37831870       0.62284680       0.37125118 </v>
    <v>       0.37237828       0.87561649       0.13069879 </v>
    <v>       0.12351859       0.62234846       0.62541594 </v>
    <v>       0.13087541       0.87644706       0.87011689 </v>
    <v>       0.37597386       0.62106222       0.87242036 </v>
    <v>       0.37625857       0.87450059       0.62383348 </v>
    <v>       0.62288085       0.12685220       0.12280839 </v>
    <v>       0.62320860       0.37697012       0.37198572 </v>
    <v>       0.87738178       0.12190908       0.37260988 </v>
    <v>       0.87159176       0.36720375       0.12808885 </v>
    <v>       0.62169487       0.12731621       0.62441003 </v>
    <v>       0.60691168       0.37599488       0.87514861 </v>
    <v>       0.87726151       0.12201716       0.86987860 </v>
    <v>       0.87667442       0.37497059       0.62784070 </v>
    <v>       0.62813321       0.61700800       0.11930616 </v>
    <v>       0.63037703       0.88134120       0.37500265 </v>
    <v>       0.87809673       0.62456046       0.37807581 </v>
    <v>       0.86989343       0.86849630       0.12632149 </v>
    <v>       0.62820761       0.62459499       0.63056881 </v>
    <v>       0.62672221       0.86801529       0.87675711 </v>
    <v>       0.87755000       0.62416202       0.86963038 </v>
    <v>       0.87834911       0.87955971       0.62562933 </v>
    <v>       0.00481702       0.99435521       0.00617931 </v>
    <v>       0.00463383       0.25449822       0.25462683 </v>
    <v>       0.25021798       0.00601324       0.24996794 </v>
    <v>       0.25645954       0.25239977       0.99739318 </v>
    <v>       0.00242286       0.99258233       0.50064442 </v>
    <v>       0.00279873       0.25599981       0.75520341 </v>
    <v>       0.24540379       0.00256162       0.74818908 </v>
    <v>       0.24654489       0.24503347       0.49473456 </v>
    <v>       0.99339282       0.49534481       0.00428309 </v>
    <v>       0.99903467       0.74252374       0.25608327 </v>
    <v>       0.24976578       0.50030469       0.24747579 </v>
    <v>       0.24665081       0.74149632       0.99844623 </v>
    <v>       0.99512298       0.50268036       0.48996933 </v>
    <v>       0.00413193       0.75196528       0.74734964 </v>
    <v>       0.25262250       0.50398689       0.74599861 </v>
    <v>       0.25300712       0.74734969       0.51426318 </v>
    <v>       0.49646158       0.00491458       0.99624695 </v>
    <v>       0.49535845       0.24776504       0.25297848 </v>
    <v>       0.74802693       0.00586302       0.24877931 </v>
    <v>       0.74651424       0.24676842       0.00171718 </v>
    <v>       0.50093036       0.99540837       0.50052486 </v>
    <v>       0.50058359       0.25449311       0.74997752 </v>
    <v>       0.75237551       0.00485579       0.75303153 </v>
    <v>       0.75002626       0.25135324       0.49553786 </v>
    <v>       0.50922830       0.49730827       0.99829532 </v>
    <v>       0.49328980       0.74533132       0.25047174 </v>
    <v>       0.75107274       0.50919532       0.25405111 </v>
    <v>       0.74874274       0.75220520       0.00810229 </v>
    <v>       0.50067710       0.49498423       0.50114178 </v>
    <v>       0.49472077       0.75604898       0.74037989 </v>
    <v>       0.75105201       0.49849843       0.75172881 </v>
    <v>       0.75726286       0.75160493       0.50294860 </v>
   </varray>
  </structure>
  <varray name="forces" >
   <v>      -0.16018535       1.65763885      -0.55031851 </v>
   <v>      -0.51443291       0.63092035      -0.32211191 </v>
   <v>      -1.52901997      -2.45949412       1.89281731 </v>
   <v>      -0.40425259       1.33108398      -2.17896345 </v>
   <v>      -0.00902250      -2.01700711       0.25107601 </v>
   <v>       1.60467170       0.45043513       0.46552154 </v>
   <v>       0.13436426      -1.01673679      -1.85238864 </v>
   <v>      -1.13392449       0.29942141      -1.03154433 </v>
   <v>      -1.05061981      -0.93086624      -0.14250774 </v>
   <v>      -0.57846907      -1.46195833       0.04507431 </v>
   <v>      -0.96059177      -0.29977655       1.79973441 </v>
   <v>       0.06138291      -0.28627340      -1.34032110 </v>
   <v>      -0.03684851       0.25332738      -0.57436580 </v>
   <v>      -0.86120777      -0.75171895       0.97830992 </v>
   <v>       0.10383939       0.78678405       0.35879690 </v>
   <v>      -0.72846273       1.32337859       0.14724899 </v>
   <v>      -0.31179755      -0.35305956       0.43988440 </v>
   <v>       0.71487025      -0.11360864       0.34756174 </v>
   <v>       0.14122039       0.61370780       0.47773161 </v>
   <v>       0.20214148       1.47077881       0.24708861 </v>
   <v>       0.49103821      -0.30252772       0.25779257 </v>
   <v>       4.60774090      -0.91033066      -0.48892245 </v>
   <v>       0.36422901       0.84436097       1.82783479 </v>
   <v>      -0.44331976       0.20474158      -0.93654335 </v>
   <v>      -0.18578317       1.62395576       1.45282023 </v>
   <v>      -0.64719099      -1.72802856       0.04927063 </v>
   <v>      -1.09132416       0.70206089      -0.56152345 </v>
   <v>       1.43017354       1.04550546       1.02574901 </v>
   <v>      -0.46472094       0.33128852      -1.52436166 </v>
   <v>      -0.77682017       1.71916341      -0.56154220 </v>
   <v>      -0.24110443       0.32874998       1.53506794 </v>
   <v>      -0.18407338      -0.82993730       0.35687716 </v>
   <v>      -0.86545141       0.27183747      -0.96276060 </v>
   <v>      -0.70055424      -1.61205724      -0.87774145 </v>
   <v>       0.67179035      -1.15283315       0.45324318 </v>
   <v>      -1.65285492       0.25310514       1.27249629 </v>
   <v>      -0.08495639       2.11237954      -0.23606738 </v>
   <v>      -0.67328982      -0.79220757      -0.96091018 </v>
   <v>       1.02128177       1.09034036       0.05606487 </v>
   <v>       1.33984725       1.35114098       0.92397862 </v>
   <v>       0.57031270       0.66152998      -0.63081020 </v>
   <v>       1.15910822       2.24696896      -0.84608528 </v>
   <v>       0.56451310      -0.19538866       0.57627085 </v>
   <v>       1.19527766       1.52451907      -0.01266501 </v>
   <v>       1.58279807      -1.65746931       2.88619170 </v>
   <v>      -0.74632358      -0.32082719       0.58349882 </v>
   <v>      -0.58745968      -1.51249338       0.80885196 </v>
   <v>      -0.41419019      -0.07405003      -3.16859206 </v>
   <v>       0.52905593      -1.56109761       0.83883702 </v>
   <v>       2.21893039       1.11007055      -0.98485877 </v>
   <v>       0.42724693      -0.62354810      -0.22691420 </v>
   <v>       0.08487775       0.29848426      -0.83138167 </v>
   <v>       0.20332579       1.44475567      -0.55428795 </v>
   <v>      -0.88394820      -1.38904754      -0.51003322 </v>
   <v>      -0.93435501      -1.12016567      -0.69429844 </v>
   <v>       0.17993473      -0.34024437       0.59921982 </v>
   <v>      -3.05202744       0.68575506       1.17563651 </v>
   <v>       1.67430609       1.17567932      -0.48625601 </v>
   <v>      -0.66151654      -2.33516724      -0.79995780 </v>
   <v>      -0.04448070      -1.27140676      -2.30931312 </v>
   <v>       0.24025082       0.78854801      -0.02460776 </v>
   <v>       2.00091687      -1.71917042       2.66175538 </v>
   <v>      -0.50254317       0.12960251       0.11752935 </v>
   <v>      -1.40232314       0.37647837       0.27312323 </v>
  </varray>
  <varray name="stress" >
   <v>      13.33622111       2.42734977       2.80993292 </v>
   <v>       2.42734978      13.68442052      -1.99881917 </v>
   <v>       2.80993299      -1.99881914      14.20287154 </v>
  </varray>
  <energy>
   <i name="e_fr_energy">   -478.40551183 </i>
   <i name="e_wo_entrp">   -478.41626670 </i>
   <i name="e_0_energy">   -478.40909679 </i>
  </energy>
  <time name="totalsc">  295.59  296.56</time>
  <eigenvalues>
   <array>
    <dimension dim="1">band</dimension>
    <dimension dim="2">kpoint</dimension>
    <dimension dim="3">spin</dimension>
    <field>eigene</field>
    <field>occ</field>
    <set>
     <set comment="spin 1">
      <set comment="kpoint 1">
       <r>   -7.3837    1.0000 </r>
       <r>   -6.0585    1.0000 </r>
       <r>   -5.9510    1.0000 </r>
       <r>   -5.7721    1.0000 </r>
       <r>   -5.7157    1.0000 </r>
       <r>   -5.7036    1.0000 </r>
       <r>   -5.6452    1.0000 </r>
       <r>   -4.7380    1.0000 </r>
       <r>   -4.6252    1.0000 </r>
       <r>   -4.4924    1.0000 </r>
       <r>   -4.4359    1.0000 </r>
       <r>   -4.3941    1.0000 </r>
       <r>   -4.3482    1.0000 </r>
       <r>   -4.3113    1.0000 </r>
       <r>   -4.3041    1.0000 </r>
       <r>   -4.2701    1.0000 </r>
       <r>   -4.2353    1.0000 </r>
       <r>   -4.1662    1.0000 </r>
       <r>   -4.0973    1.0000 </r>
       <r>   -3.8266    1.0000 </r>
       <r>   -3.8016    1.0000 </r>
       <r>   -3.7693    1.0000 </r>
       <r>   -3.7258    1.0000 </r>
       <r>   -2.4328    1.0000 </r>
       <r>   -2.3995    1.0000 </r>
       <r>   -2.3454    1.0000 </r>
       <r>   -2.2757    1.0000 </r>
       <r>   -2.1935    1.0000 </r>
       <r>   -2.1497    1.0000 </r>
       <r>   -2.0572    1.0000 </r>
       <r>   -2.0415    1.0000 </r>
       <r>   -1.9453    1.0000 </r>
       <r>   -0.5656    1.0000 </r>
       <r>   -0.5359    1.0000 </r>
       <r>   -0.4961    1.0000 </r>
       <r>   -0.4768    1.0000 </r>
       <r>    0.1914    1.0000 </r>
       <r>    0.2223    1.0000 </r>
       <r>    0.2666    1.0000 </r>
       <r>    0.8536    1.0000 </r>
       <r>    0.9075    1.0000 </r>
       <r>    0.9643    1.0000 </r>
       <r>    0.9714    1.0000 </r>
       <r>    1.0002    1.0000 </r>
       <r>    1.0809    1.0000 </r>
       <r>    1.8380    1.0000 </r>
       <r>    1.8581    1.0000 </r>
       <r>    1.9161    1.0000 </r>
       <r>    1.9650    1.0000 </r>
       <r>    2.0022    1.0000 </r>
       <r>    2.0325    1.0000 </r>
       <r>    2.1063    1.0000 </r>
       <r>    2.1343    1.0000 </r>
       <r>    2.1610    1.0000 </r>
       <r>    2.1679    1.0000 </r>
       <r>    2.2468    1.0000 </r>
       <r>    2.2516    1.0000 </r>
       <r>    2.8533    1.0000 </r>
       <r>    2.9490    1.0000 </r>
       <r>    2.9950    1.0000 </r>
       <r>    3.0488    1.0000 </r>
       <r>    3.0618    1.0000 </r>
       <r>    3.1487    1.0000 </r>
       <r>    3.2434    1.0000 </r>
       <r>    3.2516    1.0000 </r>
       <r>    3.3034    1.0000 </r>
       <r>    3.3640    1.0000 </r>
       <r>    3.3744    1.0000 </r>
       <r>    3.4002    1.0000 </r>
       <r>    3.5357    1.0000 </r>
       <r>    3.5854    1.0000 </r>
       <r>    3.6070    1.0000 </r>
       <r>    3.6423    1.0000 </r>
       <r>    3.6504    1.0000 </r>
       <r>    3.6898    1.0000 </r>
       <r>    3.7282    1.0000 </r>
       <r>    3.7306    1.0000 </r>
       <r>    3.7662    1.0000 </r>
       <r>    3.7842    1.0000 </r>
       <r>    3.8345    1.0000 </r>
       <r>    3.8670    1.0000 </r>
       <r>    4.4741    1.0000 </r>
       <r>    4.5534    1.0000 </r>
       <r>    4.6270    1.0000 </r>
       <r>    4.6603    1.0000 </r>
       <r>    4.6801    1.0000 </r>
       <r>    4.7248    1.0000 </r>
       <r>    4.7773    1.0000 </r>
       <r>    4.8472    1.0000 </r>
       <r>    4.8638    1.0000 </r>
       <r>    4.8839    1.0000 </r>
       <r>    4.9051    1.0000 </r>
       <r>    4.9579    1.0000 </r>
       <r>    5.8028    1.0000 </r>
       <r>    5.9066    1.0000 </r>
       <r>    5.9212    1.0000 </r>
       <r>    5.9718    1.0000 </r>
       <r>    6.0027    1.0000 </r>
       <r>    6.0286    1.0000 </r>
       <r>    6.1045    1.0000 </r>
       <r>    6.1107    1.0000 </r>
       <r>    6.1464    1.0000 </r>
       <r>    6.1810    1.0000 </r>
       <r>    6.2252    1.0000 </r>
       <r>    6.2367    1.0000 </r>
       <r>    6.6413    1.0000 </r>
       <r>    6.6576    1.0000 </r>
       <r>    6.7086    1.0000 </r>
       <r>    6.7298    1.0000 </r>
       <r>    6.7571    1.0000 </r>
       <r>    6.8047    1.0000 </r>
       <r>    6.8174    1.0000 </r>
       <r>    6.8437    1.0000 </r>
       <r>    6.8634    1.0000 </r>
       <r>    6.8750    1.0000 </r>
       <r>    6.9369    1.0000 </r>
       <r>    6.9457    1.0000 </r>
       <r>    6.9803    1.0000 </r>
       <r>    7.0230    1.0000 </r>
       <r>    7.0426    1.0000 </r>
       <r>    7.0556    1.0000 </r>
       <r>    7.0851    1.0000 </r>
       <r>    7.1483    1.0000 </r>
       <r>    7.1537    1.0000 </r>
       <r>    7.2063    1.0000 </r>
       <r>    8.0437    0.9764 </r>
       <r>    8.0590    0.9505 </r>
       <r>    8.0978    0.8590 </r>
       <r>    9.2868   -0.0000 </r>
       <r>    9.3453   -0.0000 </r>
       <r>    9.3778   -0.0000 </r>
       <r>   11.8600   -0.0000 </r>
       <r>   11.9094   -0.0000 </r>
       <r>   11.9392   -0.0000 </r>
       <r>   11.9625   -0.0000 </r>
       <r>   12.0016   -0.0000 </r>
       <r>   12.0781   -0.0000 </r>
       <r>   12.1819   -0.0000 </r>
       <r>   12.2057   -0.0000 </r>
       <r>   12.2802   -0.0000 </r>
       <r>   12.8944   -0.0000 </r>
       <r>   12.9937   -0.0000 </r>
       <r>   13.0279   -0.0000 </r>
       <r>   13.0947   -0.0000 </r>
       <r>   13.1066   -0.0000 </r>
       <r>   13.1711   -0.0000 </r>
       <r>   13.2176   -0.0000 </r>
       <r>   13.2454   -0.0000 </r>
       <r>   13.2591   -0.0000 </r>
       <r>   13.3009   -0.0000 </r>
       <r>   13.3315   -0.0000 </r>
       <r>   13.3725   -0.0000 </r>
       <r>   13.4026   -0.0000 </r>
       <r>   13.4394   -0.0000 </r>
       <r>   13.4548   -0.0000 </r>
       <r>   13.4934   -0.0000 </r>
       <r>   13.5090   -0.0000 </r>
       <r>   13.5201   -0.0000 </r>
       <r>   13.5876   -0.0000 </r>
       <r>   13.6035   -0.0000 </r>
       <r>   13.6379   -0.0000 </r>
       <r>   13.6739    0.0000 </r>
       <r>   14.0729    0.0000 </r>
       <r>   14.1331    0.0000 </r>
       <r>   14.1967    0.0000 </r>
       <r>   14.2536    0.0000 </r>
       <r>   14.2696    0.0000 </r>
       <r>   14.2931    0.0000 </r>
      </set>
      <set comment="kpoint 2">
       <r>   -7.2087    1.0000 </r>
       <r>   -6.6840    1.0000 </r>
       <r>   -5.7966    1.0000 </r>
       <r>   -5.7429    1.0000 </r>
       <r>   -5.5869    1.0000 </r>
       <r>   -5.5074    1.0000 </r>
       <r>   -5.2504    1.0000 </r>
       <r>   -5.2122    1.0000 </r>
       <r>   -5.0732    1.0000 </r>
       <r>   -5.0125    1.0000 </r>
       <r>   -4.6378    1.0000 </r>
       <r>   -4.3135    1.0000 </r>
       <r>   -4.2693    1.0000 </r>
       <r>   -4.2396    1.0000 </r>
       <r>   -4.1917    1.0000 </r>
       <r>   -4.0528    1.0000 </r>
       <r>   -3.9926    1.0000 </r>
       <r>   -3.9650    1.0000 </r>
       <r>   -3.9323    1.0000 </r>
       <r>   -3.4927    1.0000 </r>
       <r>   -3.4247    1.0000 </r>
       <r>   -3.3255    1.0000 </r>
       <r>   -3.3017    1.0000 </r>
       <r>   -3.2020    1.0000 </r>
       <r>   -2.6325    1.0000 </r>
       <r>   -2.6007    1.0000 </r>
       <r>   -2.4695    1.0000 </r>
       <r>   -2.4317    1.0000 </r>
       <r>   -2.3023    1.0000 </r>
       <r>   -2.2519    1.0000 </r>
       <r>   -2.1483    1.0000 </r>
       <r>   -2.1071    1.0000 </r>
       <r>   -0.1384    1.0000 </r>
       <r>   -0.0888    1.0000 </r>
       <r>   -0.0410    1.0000 </r>
       <r>   -0.0181    1.0000 </r>
       <r>    0.3453    1.0000 </r>
       <r>    0.3682    1.0000 </r>
       <r>    0.6211    1.0000 </r>
       <r>    0.7201    1.0000 </r>
       <r>    0.9081    1.0000 </r>
       <r>    0.9468    1.0000 </r>
       <r>    0.9759    1.0000 </r>
       <r>    1.0338    1.0000 </r>
       <r>    1.0840    1.0000 </r>
       <r>    1.1167    1.0000 </r>
       <r>    1.1458    1.0000 </r>
       <r>    1.1992    1.0000 </r>
       <r>    1.2738    1.0000 </r>
       <r>    1.3853    1.0000 </r>
       <r>    1.4230    1.0000 </r>
       <r>    1.4662    1.0000 </r>
       <r>    1.5168    1.0000 </r>
       <r>    2.5728    1.0000 </r>
       <r>    2.6410    1.0000 </r>
       <r>    2.6750    1.0000 </r>
       <r>    2.7012    1.0000 </r>
       <r>    2.8654    1.0000 </r>
       <r>    2.8798    1.0000 </r>
       <r>    2.9011    1.0000 </r>
       <r>    2.9355    1.0000 </r>
       <r>    2.9742    1.0000 </r>
       <r>    3.0184    1.0000 </r>
       <r>    3.0391    1.0000 </r>
       <r>    3.0651    1.0000 </r>
       <r>    3.1476    1.0000 </r>
       <r>    3.5215    1.0000 </r>
       <r>    3.5359    1.0000 </r>
       <r>    3.6135    1.0000 </r>
       <r>    3.6469    1.0000 </r>
       <r>    3.8959    1.0000 </r>
       <r>    3.9592    1.0000 </r>
       <r>    4.0143    1.0000 </r>
       <r>    4.1013    1.0000 </r>
       <r>    4.2520    1.0000 </r>
       <r>    4.3030    1.0000 </r>
       <r>    4.3343    1.0000 </r>
       <r>    4.3604    1.0000 </r>
       <r>    4.4288    1.0000 </r>
       <r>    4.4385    1.0000 </r>
       <r>    4.4664    1.0000 </r>
       <r>    4.5073    1.0000 </r>
       <r>    4.5916    1.0000 </r>
       <r>    4.6463    1.0000 </r>
       <r>    4.6573    1.0000 </r>
       <r>    4.7017    1.0000 </r>
       <r>    4.7727    1.0000 </r>
       <r>    4.8395    1.0000 </r>
       <r>    4.8883    1.0000 </r>
       <r>    4.9204    1.0000 </r>
       <r>    5.0052    1.0000 </r>
       <r>    5.0136    1.0000 </r>
       <r>    5.3491    1.0000 </r>
       <r>    5.3799    1.0000 </r>
       <r>    5.5436    1.0000 </r>
       <r>    5.5652    1.0000 </r>
       <r>    5.6237    1.0000 </r>
       <r>    5.6875    1.0000 </r>
       <r>    5.8229    1.0000 </r>
       <r>    5.8411    1.0000 </r>
       <r>    5.9256    1.0000 </r>
       <r>    5.9474    1.0000 </r>
       <r>    6.1134    1.0000 </r>
       <r>    6.2416    1.0000 </r>
       <r>    6.2631    1.0000 </r>
       <r>    6.2850    1.0000 </r>
       <r>    6.3574    1.0000 </r>
       <r>    6.4470    1.0000 </r>
       <r>    6.4677    1.0000 </r>
       <r>    6.5537    1.0000 </r>
       <r>    6.5731    1.0000 </r>
       <r>    6.7092    1.0000 </r>
       <r>    6.7622    1.0000 </r>
       <r>    6.7956    1.0000 </r>
       <r>    6.8309    1.0000 </r>
       <r>    6.8464    1.0000 </r>
       <r>    6.8938    1.0000 </r>
       <r>    6.9112    1.0000 </r>
       <r>    6.9671    1.0000 </r>
       <r>    7.0061    1.0000 </r>
       <r>    7.0167    1.0000 </r>
       <r>    7.0716    1.0000 </r>
       <r>    7.0900    1.0000 </r>
       <r>    7.1311    1.0000 </r>
       <r>    7.1730    1.0000 </r>
       <r>    7.5355    1.0000 </r>
       <r>    7.7213    1.0021 </r>
       <r>    7.7583    1.0043 </r>
       <r>    9.6424   -0.0000 </r>
       <r>   10.1416   -0.0000 </r>
       <r>   10.1932   -0.0000 </r>
       <r>   10.5995   -0.0000 </r>
       <r>   11.8774   -0.0000 </r>
       <r>   11.9328   -0.0000 </r>
       <r>   12.3915   -0.0000 </r>
       <r>   12.4973   -0.0000 </r>
       <r>   12.5187   -0.0000 </r>
       <r>   12.6099   -0.0000 </r>
       <r>   12.6491   -0.0000 </r>
       <r>   12.8189   -0.0000 </r>
       <r>   12.8497   -0.0000 </r>
       <r>   12.8597   -0.0000 </r>
       <r>   12.9123   -0.0000 </r>
       <r>   12.9563   -0.0000 </r>
       <r>   12.9922   -0.0000 </r>
       <r>   13.0582   -0.0000 </r>
       <r>   13.0844   -0.0000 </r>
       <r>   13.1173   -0.0000 </r>
       <r>   13.1534   -0.0000 </r>
       <r>   13.2005   -0.0000 </r>
       <r>   13.4359   -0.0000 </r>
       <r>   13.5430   -0.0000 </r>
       <r>   13.5822   -0.0000 </r>
       <r>   13.6096   -0.0000 </r>
       <r>   13.6322   -0.0000 </r>
       <r>   13.6700    0.0000 </r>
       <r>   13.6844    0.0000 </r>
       <r>   13.7174    0.0000 </r>
       <r>   13.7293    0.0000 </r>
       <r>   13.8661    0.0000 </r>
       <r>   13.9452    0.0000 </r>
       <r>   14.0274    0.0000 </r>
       <r>   14.0313    0.0000 </r>
       <r>   14.4378    0.0000 </r>
       <r>   14.6709    0.0000 </r>
       <r>   14.7025    0.0000 </r>
       <r>   14.7487    0.0000 </r>
       <r>   14.8207    0.0000 </r>
      </set>
      <set comment="kpoint 3">
       <r>   -7.2100    1.0000 </r>
       <r>   -6.6798    1.0000 </r>
       <r>   -5.8498    1.0000 </r>
       <r>   -5.6862    1.0000 </r>
       <r>   -5.5780    1.0000 </r>
       <r>   -5.5395    1.0000 </r>
       <r>   -5.2436    1.0000 </r>
       <r>   -5.1582    1.0000 </r>
       <r>   -5.0584    1.0000 </r>
       <r>   -5.0405    1.0000 </r>
       <r>   -4.6470    1.0000 </r>
       <r>   -4.3846    1.0000 </r>
       <r>   -4.2880    1.0000 </r>
       <r>   -4.2751    1.0000 </r>
       <r>   -4.1709    1.0000 </r>
       <r>   -4.0483    1.0000 </r>
       <r>   -3.9714    1.0000 </r>
       <r>   -3.9139    1.0000 </r>
       <r>   -3.8971    1.0000 </r>
       <r>   -3.5080    1.0000 </r>
       <r>   -3.4428    1.0000 </r>
       <r>   -3.3448    1.0000 </r>
       <r>   -3.3177    1.0000 </r>
       <r>   -3.1690    1.0000 </r>
       <r>   -2.6088    1.0000 </r>
       <r>   -2.5719    1.0000 </r>
       <r>   -2.4886    1.0000 </r>
       <r>   -2.4404    1.0000 </r>
       <r>   -2.2808    1.0000 </r>
       <r>   -2.2628    1.0000 </r>
       <r>   -2.1727    1.0000 </r>
       <r>   -2.1136    1.0000 </r>
       <r>   -0.1405    1.0000 </r>
       <r>   -0.1052    1.0000 </r>
       <r>   -0.0359    1.0000 </r>
       <r>   -0.0098    1.0000 </r>
       <r>    0.3540    1.0000 </r>
       <r>    0.3868    1.0000 </r>
       <r>    0.6626    1.0000 </r>
       <r>    0.6830    1.0000 </r>
       <r>    0.8964    1.0000 </r>
       <r>    0.9341    1.0000 </r>
       <r>    1.0033    1.0000 </r>
       <r>    1.0253    1.0000 </r>
       <r>    1.0830    1.0000 </r>
       <r>    1.0969    1.0000 </r>
       <r>    1.1308    1.0000 </r>
       <r>    1.2147    1.0000 </r>
       <r>    1.2719    1.0000 </r>
       <r>    1.3765    1.0000 </r>
       <r>    1.4089    1.0000 </r>
       <r>    1.4973    1.0000 </r>
       <r>    1.5048    1.0000 </r>
       <r>    2.5577    1.0000 </r>
       <r>    2.6266    1.0000 </r>
       <r>    2.6609    1.0000 </r>
       <r>    2.6902    1.0000 </r>
       <r>    2.8531    1.0000 </r>
       <r>    2.9020    1.0000 </r>
       <r>    2.9324    1.0000 </r>
       <r>    2.9617    1.0000 </r>
       <r>    2.9831    1.0000 </r>
       <r>    3.0292    1.0000 </r>
       <r>    3.0524    1.0000 </r>
       <r>    3.0807    1.0000 </r>
       <r>    3.1410    1.0000 </r>
       <r>    3.4886    1.0000 </r>
       <r>    3.5049    1.0000 </r>
       <r>    3.6234    1.0000 </r>
       <r>    3.6377    1.0000 </r>
       <r>    3.9016    1.0000 </r>
       <r>    3.9782    1.0000 </r>
       <r>    4.0331    1.0000 </r>
       <r>    4.0960    1.0000 </r>
       <r>    4.2636    1.0000 </r>
       <r>    4.3082    1.0000 </r>
       <r>    4.3333    1.0000 </r>
       <r>    4.3479    1.0000 </r>
       <r>    4.3880    1.0000 </r>
       <r>    4.4220    1.0000 </r>
       <r>    4.4736    1.0000 </r>
       <r>    4.5055    1.0000 </r>
       <r>    4.5917    1.0000 </r>
       <r>    4.6448    1.0000 </r>
       <r>    4.6896    1.0000 </r>
       <r>    4.7124    1.0000 </r>
       <r>    4.7610    1.0000 </r>
       <r>    4.8244    1.0000 </r>
       <r>    4.8735    1.0000 </r>
       <r>    4.9118    1.0000 </r>
       <r>    4.9754    1.0000 </r>
       <r>    5.0467    1.0000 </r>
       <r>    5.3611    1.0000 </r>
       <r>    5.3820    1.0000 </r>
       <r>    5.5315    1.0000 </r>
       <r>    5.5745    1.0000 </r>
       <r>    5.6109    1.0000 </r>
       <r>    5.7000    1.0000 </r>
       <r>    5.8514    1.0000 </r>
       <r>    5.8679    1.0000 </r>
       <r>    5.9341    1.0000 </r>
       <r>    5.9702    1.0000 </r>
       <r>    6.1350    1.0000 </r>
       <r>    6.2059    1.0000 </r>
       <r>    6.2643    1.0000 </r>
       <r>    6.2949    1.0000 </r>
       <r>    6.3457    1.0000 </r>
       <r>    6.4412    1.0000 </r>
       <r>    6.4747    1.0000 </r>
       <r>    6.5167    1.0000 </r>
       <r>    6.5636    1.0000 </r>
       <r>    6.6611    1.0000 </r>
       <r>    6.7419    1.0000 </r>
       <r>    6.7758    1.0000 </r>
       <r>    6.8163    1.0000 </r>
       <r>    6.8534    1.0000 </r>
       <r>    6.9167    1.0000 </r>
       <r>    6.9510    1.0000 </r>
       <r>    6.9627    1.0000 </r>
       <r>    7.0047    1.0000 </r>
       <r>    7.0346    1.0000 </r>
       <r>    7.0611    1.0000 </r>
       <r>    7.0955    1.0000 </r>
       <r>    7.1391    1.0000 </r>
       <r>    7.1795    1.0000 </r>
       <r>    7.5436    1.0000 </r>
       <r>    7.7216    1.0021 </r>
       <r>    7.7588    1.0044 </r>
       <r>    9.6462   -0.0000 </r>
       <r>   10.1189   -0.0000 </r>
       <r>   10.1930   -0.0000 </r>
       <r>   10.6300   -0.0000 </r>
       <r>   11.8872   -0.0000 </r>
       <r>   11.9328   -0.0000 </r>
       <r>   12.3824   -0.0000 </r>
       <r>   12.4575   -0.0000 </r>
       <r>   12.5435   -0.0000 </r>
       <r>   12.5957   -0.0000 </r>
       <r>   12.6376   -0.0000 </r>
       <r>   12.7689   -0.0000 </r>
       <r>   12.8576   -0.0000 </r>
       <r>   12.9072   -0.0000 </r>
       <r>   12.9424   -0.0000 </r>
       <r>   12.9500   -0.0000 </r>
       <r>   12.9977   -0.0000 </r>
       <r>   13.0531   -0.0000 </r>
       <r>   13.0696   -0.0000 </r>
       <r>   13.1095   -0.0000 </r>
       <r>   13.1802   -0.0000 </r>
       <r>   13.2430   -0.0000 </r>
       <r>   13.4520   -0.0000 </r>
       <r>   13.5083   -0.0000 </r>
       <r>   13.5482   -0.0000 </r>
       <r>   13.5791   -0.0000 </r>
       <r>   13.5983   -0.0000 </r>
       <r>   13.6418   -0.0000 </r>
       <r>   13.6806    0.0000 </r>
       <r>   13.7233    0.0000 </r>
       <r>   13.7549    0.0000 </r>
       <r>   13.8912    0.0000 </r>
       <r>   13.9523    0.0000 </r>
       <r>   13.9876    0.0000 </r>
       <r>   14.0777    0.0000 </r>
       <r>   14.4319    0.0000 </r>
       <r>   14.6521    0.0000 </r>
       <r>   14.6866    0.0000 </r>
       <r>   14.7659    0.0000 </r>
       <r>   14.7929    0.0000 </r>
      </set>
      <set comment="kpoint 4">
       <r>   -7.2114    1.0000 </r>
       <r>   -6.6748    1.0000 </r>
       <r>   -5.8630    1.0000 </r>
       <r>   -5.6730    1.0000 </r>
       <r>   -5.5800    1.0000 </r>
       <r>   -5.5499    1.0000 </r>
       <r>   -5.2417    1.0000 </r>
       <r>   -5.1321    1.0000 </r>
       <r>   -5.0607    1.0000 </r>
       <r>   -5.0552    1.0000 </r>
       <r>   -4.6480    1.0000 </r>
       <r>   -4.4043    1.0000 </r>
       <r>   -4.3074    1.0000 </r>
       <r>   -4.2688    1.0000 </r>
       <r>   -4.1557    1.0000 </r>
       <r>   -3.9844    1.0000 </r>
       <r>   -3.9656    1.0000 </r>
       <r>   -3.9404    1.0000 </r>
       <r>   -3.9082    1.0000 </r>
       <r>   -3.5350    1.0000 </r>
       <r>   -3.4466    1.0000 </r>
       <r>   -3.3399    1.0000 </r>
       <r>   -3.3036    1.0000 </r>
       <r>   -3.1658    1.0000 </r>
       <r>   -2.6253    1.0000 </r>
       <r>   -2.5373    1.0000 </r>
       <r>   -2.5068    1.0000 </r>
       <r>   -2.4513    1.0000 </r>
       <r>   -2.3086    1.0000 </r>
       <r>   -2.2600    1.0000 </r>
       <r>   -2.1418    1.0000 </r>
       <r>   -2.1187    1.0000 </r>
       <r>   -0.1332    1.0000 </r>
       <r>   -0.0864    1.0000 </r>
       <r>   -0.0606    1.0000 </r>
       <r>   -0.0033    1.0000 </r>
       <r>    0.3232    1.0000 </r>
       <r>    0.4102    1.0000 </r>
       <r>    0.6747    1.0000 </r>
       <r>    0.7067    1.0000 </r>
       <r>    0.8860    1.0000 </r>
       <r>    0.9475    1.0000 </r>
       <r>    0.9876    1.0000 </r>
       <r>    1.0290    1.0000 </r>
       <r>    1.0414    1.0000 </r>
       <r>    1.1216    1.0000 </r>
       <r>    1.1404    1.0000 </r>
       <r>    1.1984    1.0000 </r>
       <r>    1.2660    1.0000 </r>
       <r>    1.3759    1.0000 </r>
       <r>    1.4317    1.0000 </r>
       <r>    1.4628    1.0000 </r>
       <r>    1.5118    1.0000 </r>
       <r>    2.5773    1.0000 </r>
       <r>    2.6411    1.0000 </r>
       <r>    2.6578    1.0000 </r>
       <r>    2.7115    1.0000 </r>
       <r>    2.8185    1.0000 </r>
       <r>    2.9009    1.0000 </r>
       <r>    2.9311    1.0000 </r>
       <r>    2.9531    1.0000 </r>
       <r>    2.9744    1.0000 </r>
       <r>    3.0338    1.0000 </r>
       <r>    3.0594    1.0000 </r>
       <r>    3.0874    1.0000 </r>
       <r>    3.1175    1.0000 </r>
       <r>    3.4830    1.0000 </r>
       <r>    3.5092    1.0000 </r>
       <r>    3.6254    1.0000 </r>
       <r>    3.6395    1.0000 </r>
       <r>    3.9425    1.0000 </r>
       <r>    4.0082    1.0000 </r>
       <r>    4.0244    1.0000 </r>
       <r>    4.0778    1.0000 </r>
       <r>    4.2727    1.0000 </r>
       <r>    4.2829    1.0000 </r>
       <r>    4.3385    1.0000 </r>
       <r>    4.3570    1.0000 </r>
       <r>    4.3761    1.0000 </r>
       <r>    4.4100    1.0000 </r>
       <r>    4.4773    1.0000 </r>
       <r>    4.4930    1.0000 </r>
       <r>    4.5975    1.0000 </r>
       <r>    4.6333    1.0000 </r>
       <r>    4.6684    1.0000 </r>
       <r>    4.7473    1.0000 </r>
       <r>    4.7969    1.0000 </r>
       <r>    4.8204    1.0000 </r>
       <r>    4.8536    1.0000 </r>
       <r>    4.9123    1.0000 </r>
       <r>    4.9893    1.0000 </r>
       <r>    5.0127    1.0000 </r>
       <r>    5.3565    1.0000 </r>
       <r>    5.3951    1.0000 </r>
       <r>    5.5401    1.0000 </r>
       <r>    5.5769    1.0000 </r>
       <r>    5.6104    1.0000 </r>
       <r>    5.6809    1.0000 </r>
       <r>    5.8000    1.0000 </r>
       <r>    5.9027    1.0000 </r>
       <r>    5.9152    1.0000 </r>
       <r>    5.9858    1.0000 </r>
       <r>    6.1186    1.0000 </r>
       <r>    6.2076    1.0000 </r>
       <r>    6.2538    1.0000 </r>
       <r>    6.3106    1.0000 </r>
       <r>    6.3402    1.0000 </r>
       <r>    6.4139    1.0000 </r>
       <r>    6.4888    1.0000 </r>
       <r>    6.5394    1.0000 </r>
       <r>    6.5732    1.0000 </r>
       <r>    6.7182    1.0000 </r>
       <r>    6.7470    1.0000 </r>
       <r>    6.7833    1.0000 </r>
       <r>    6.8399    1.0000 </r>
       <r>    6.8602    1.0000 </r>
       <r>    6.8929    1.0000 </r>
       <r>    6.9335    1.0000 </r>
       <r>    6.9698    1.0000 </r>
       <r>    6.9838    1.0000 </r>
       <r>    7.0169    1.0000 </r>
       <r>    7.0574    1.0000 </r>
       <r>    7.1055    1.0000 </r>
       <r>    7.1222    1.0000 </r>
       <r>    7.1880    1.0000 </r>
       <r>    7.5491    1.0000 </r>
       <r>    7.7272    1.0024 </r>
       <r>    7.7461    1.0034 </r>
       <r>    9.6497   -0.0000 </r>
       <r>   10.1533   -0.0000 </r>
       <r>   10.1736   -0.0000 </r>
       <r>   10.6031   -0.0000 </r>
       <r>   11.8590   -0.0000 </r>
       <r>   11.9108   -0.0000 </r>
       <r>   12.3786   -0.0000 </r>
       <r>   12.5156   -0.0000 </r>
       <r>   12.5786   -0.0000 </r>
       <r>   12.5924   -0.0000 </r>
       <r>   12.6458   -0.0000 </r>
       <r>   12.8047   -0.0000 </r>
       <r>   12.8248   -0.0000 </r>
       <r>   12.8989   -0.0000 </r>
       <r>   12.9457   -0.0000 </r>
       <r>   12.9661   -0.0000 </r>
       <r>   12.9966   -0.0000 </r>
       <r>   13.0257   -0.0000 </r>
       <r>   13.0949   -0.0000 </r>
       <r>   13.1007   -0.0000 </r>
       <r>   13.1812   -0.0000 </r>
       <r>   13.2095   -0.0000 </r>
       <r>   13.4630   -0.0000 </r>
       <r>   13.5145   -0.0000 </r>
       <r>   13.5386   -0.0000 </r>
       <r>   13.5823   -0.0000 </r>
       <r>   13.6273   -0.0000 </r>
       <r>   13.6353   -0.0000 </r>
       <r>   13.6788    0.0000 </r>
       <r>   13.6945    0.0000 </r>
       <r>   13.7426    0.0000 </r>
       <r>   13.9167    0.0000 </r>
       <r>   13.9505    0.0000 </r>
       <r>   13.9779    0.0000 </r>
       <r>   14.0304    0.0000 </r>
       <r>   14.4225    0.0000 </r>
       <r>   14.6467    0.0000 </r>
       <r>   14.7373    0.0000 </r>
       <r>   14.7674    0.0000 </r>
       <r>   14.8431    0.0000 </r>
      </set>
      <set comment="kpoint 5">
       <r>   -7.0372    1.0000 </r>
       <r>   -6.5931    1.0000 </r>
       <r>   -6.4108    1.0000 </r>
       <r>   -6.0175    1.0000 </r>
       <r>   -5.4950    1.0000 </r>
       <r>   -5.4424    1.0000 </r>
       <r>   -5.1820    1.0000 </r>
       <r>   -5.0567    1.0000 </r>
       <r>   -4.9607    1.0000 </r>
       <r>   -4.8586    1.0000 </r>
       <r>   -4.6023    1.0000 </r>
       <r>   -4.5772    1.0000 </r>
       <r>   -4.4303    1.0000 </r>
       <r>   -4.3924    1.0000 </r>
       <r>   -4.0889    1.0000 </r>
       <r>   -3.9982    1.0000 </r>
       <r>   -3.6099    1.0000 </r>
       <r>   -3.5726    1.0000 </r>
       <r>   -3.5101    1.0000 </r>
       <r>   -3.4455    1.0000 </r>
       <r>   -3.3793    1.0000 </r>
       <r>   -3.2432    1.0000 </r>
       <r>   -3.1413    1.0000 </r>
       <r>   -3.0285    1.0000 </r>
       <r>   -2.9421    1.0000 </r>
       <r>   -2.8357    1.0000 </r>
       <r>   -2.7091    1.0000 </r>
       <r>   -2.6797    1.0000 </r>
       <r>   -2.6425    1.0000 </r>
       <r>   -2.3261    1.0000 </r>
       <r>   -2.2777    1.0000 </r>
       <r>   -2.1987    1.0000 </r>
       <r>   -0.2183    1.0000 </r>
       <r>   -0.1777    1.0000 </r>
       <r>    0.3346    1.0000 </r>
       <r>    0.3519    1.0000 </r>
       <r>    0.4791    1.0000 </r>
       <r>    0.5302    1.0000 </r>
       <r>    0.5972    1.0000 </r>
       <r>    0.6230    1.0000 </r>
       <r>    0.6666    1.0000 </r>
       <r>    0.7547    1.0000 </r>
       <r>    0.8199    1.0000 </r>
       <r>    0.8458    1.0000 </r>
       <r>    0.8955    1.0000 </r>
       <r>    0.9838    1.0000 </r>
       <r>    1.1855    1.0000 </r>
       <r>    1.2351    1.0000 </r>
       <r>    1.2532    1.0000 </r>
       <r>    1.3654    1.0000 </r>
       <r>    1.8899    1.0000 </r>
       <r>    1.9476    1.0000 </r>
       <r>    2.0475    1.0000 </r>
       <r>    2.0702    1.0000 </r>
       <r>    2.1108    1.0000 </r>
       <r>    2.2250    1.0000 </r>
       <r>    2.3951    1.0000 </r>
       <r>    2.5512    1.0000 </r>
       <r>    2.5797    1.0000 </r>
       <r>    2.6278    1.0000 </r>
       <r>    2.7190    1.0000 </r>
       <r>    3.1473    1.0000 </r>
       <r>    3.2083    1.0000 </r>
       <r>    3.2659    1.0000 </r>
       <r>    3.3016    1.0000 </r>
       <r>    3.3483    1.0000 </r>
       <r>    3.4667    1.0000 </r>
       <r>    3.5606    1.0000 </r>
       <r>    3.8552    1.0000 </r>
       <r>    3.9061    1.0000 </r>
       <r>    3.9679    1.0000 </r>
       <r>    4.0041    1.0000 </r>
       <r>    4.0354    1.0000 </r>
       <r>    4.0856    1.0000 </r>
       <r>    4.1289    1.0000 </r>
       <r>    4.2925    1.0000 </r>
       <r>    4.3249    1.0000 </r>
       <r>    4.4519    1.0000 </r>
       <r>    4.4923    1.0000 </r>
       <r>    4.5874    1.0000 </r>
       <r>    4.6731    1.0000 </r>
       <r>    4.7820    1.0000 </r>
       <r>    4.8439    1.0000 </r>
       <r>    4.8783    1.0000 </r>
       <r>    4.9303    1.0000 </r>
       <r>    4.9776    1.0000 </r>
       <r>    5.0086    1.0000 </r>
       <r>    5.0784    1.0000 </r>
       <r>    5.2156    1.0000 </r>
       <r>    5.2985    1.0000 </r>
       <r>    5.3479    1.0000 </r>
       <r>    5.3789    1.0000 </r>
       <r>    5.4327    1.0000 </r>
       <r>    5.4689    1.0000 </r>
       <r>    5.5127    1.0000 </r>
       <r>    5.5481    1.0000 </r>
       <r>    5.5727    1.0000 </r>
       <r>    5.5878    1.0000 </r>
       <r>    5.6421    1.0000 </r>
       <r>    5.7051    1.0000 </r>
       <r>    5.7638    1.0000 </r>
       <r>    5.8551    1.0000 </r>
       <r>    5.9119    1.0000 </r>
       <r>    5.9788    1.0000 </r>
       <r>    6.0394    1.0000 </r>
       <r>    6.1013    1.0000 </r>
       <r>    6.1885    1.0000 </r>
       <r>    6.2299    1.0000 </r>
       <r>    6.2730    1.0000 </r>
       <r>    6.3688    1.0000 </r>
       <r>    6.3960    1.0000 </r>
       <r>    6.4466    1.0000 </r>
       <r>    6.4881    1.0000 </r>
       <r>    6.5691    1.0000 </r>
       <r>    6.5915    1.0000 </r>
       <r>    6.6561    1.0000 </r>
       <r>    6.6958    1.0000 </r>
       <r>    6.7634    1.0000 </r>
       <r>    6.8244    1.0000 </r>
       <r>    6.8615    1.0000 </r>
       <r>    6.9282    1.0000 </r>
       <r>    6.9528    1.0000 </r>
       <r>    7.0285    1.0000 </r>
       <r>    7.3491    1.0000 </r>
       <r>    7.5072    1.0000 </r>
       <r>    7.5877    1.0001 </r>
       <r>    7.6965    1.0012 </r>
       <r>    8.0246    1.0010 </r>
       <r>   10.3507   -0.0000 </r>
       <r>   10.4208   -0.0000 </r>
       <r>   10.4896   -0.0000 </r>
       <r>   11.2592   -0.0000 </r>
       <r>   11.3382   -0.0000 </r>
       <r>   11.5424   -0.0000 </r>
       <r>   11.6776   -0.0000 </r>
       <r>   11.7619   -0.0000 </r>
       <r>   12.0820   -0.0000 </r>
       <r>   12.1696   -0.0000 </r>
       <r>   12.7021   -0.0000 </r>
       <r>   12.7619   -0.0000 </r>
       <r>   12.7972   -0.0000 </r>
       <r>   12.8527   -0.0000 </r>
       <r>   12.9433   -0.0000 </r>
       <r>   12.9915   -0.0000 </r>
       <r>   13.0476   -0.0000 </r>
       <r>   13.0896   -0.0000 </r>
       <r>   13.1592   -0.0000 </r>
       <r>   13.1962   -0.0000 </r>
       <r>   13.2583   -0.0000 </r>
       <r>   13.3655   -0.0000 </r>
       <r>   13.4640   -0.0000 </r>
       <r>   13.4940   -0.0000 </r>
       <r>   13.5396   -0.0000 </r>
       <r>   13.5751   -0.0000 </r>
       <r>   13.6470   -0.0000 </r>
       <r>   13.7140    0.0000 </r>
       <r>   13.7600    0.0000 </r>
       <r>   13.7799    0.0000 </r>
       <r>   13.8492    0.0000 </r>
       <r>   13.9063    0.0000 </r>
       <r>   13.9685    0.0000 </r>
       <r>   14.0661    0.0000 </r>
       <r>   14.1462    0.0000 </r>
       <r>   14.6043    0.0000 </r>
       <r>   14.6522    0.0000 </r>
       <r>   14.6987    0.0000 </r>
       <r>   14.8302    0.0000 </r>
       <r>   14.9454    0.0000 </r>
      </set>
      <set comment="kpoint 6">
       <r>   -7.0397    1.0000 </r>
       <r>   -6.5948    1.0000 </r>
       <r>   -6.3998    1.0000 </r>
       <r>   -6.0162    1.0000 </r>
       <r>   -5.5281    1.0000 </r>
       <r>   -5.4397    1.0000 </r>
       <r>   -5.2023    1.0000 </r>
       <r>   -4.9742    1.0000 </r>
       <r>   -4.9618    1.0000 </r>
       <r>   -4.8522    1.0000 </r>
       <r>   -4.6558    1.0000 </r>
       <r>   -4.5595    1.0000 </r>
       <r>   -4.4522    1.0000 </r>
       <r>   -4.3700    1.0000 </r>
       <r>   -4.0897    1.0000 </r>
       <r>   -4.0215    1.0000 </r>
       <r>   -3.7114    1.0000 </r>
       <r>   -3.5617    1.0000 </r>
       <r>   -3.4609    1.0000 </r>
       <r>   -3.4008    1.0000 </r>
       <r>   -3.3404    1.0000 </r>
       <r>   -3.2532    1.0000 </r>
       <r>   -3.1201    1.0000 </r>
       <r>   -3.0975    1.0000 </r>
       <r>   -2.8964    1.0000 </r>
       <r>   -2.8346    1.0000 </r>
       <r>   -2.7092    1.0000 </r>
       <r>   -2.6542    1.0000 </r>
       <r>   -2.6247    1.0000 </r>
       <r>   -2.3990    1.0000 </r>
       <r>   -2.2635    1.0000 </r>
       <r>   -2.2014    1.0000 </r>
       <r>   -0.2302    1.0000 </r>
       <r>   -0.2104    1.0000 </r>
       <r>    0.3481    1.0000 </r>
       <r>    0.3952    1.0000 </r>
       <r>    0.4787    1.0000 </r>
       <r>    0.5339    1.0000 </r>
       <r>    0.5397    1.0000 </r>
       <r>    0.6341    1.0000 </r>
       <r>    0.7205    1.0000 </r>
       <r>    0.7935    1.0000 </r>
       <r>    0.8278    1.0000 </r>
       <r>    0.8412    1.0000 </r>
       <r>    0.8835    1.0000 </r>
       <r>    0.9863    1.0000 </r>
       <r>    1.1884    1.0000 </r>
       <r>    1.2268    1.0000 </r>
       <r>    1.2622    1.0000 </r>
       <r>    1.3223    1.0000 </r>
       <r>    1.8987    1.0000 </r>
       <r>    1.9669    1.0000 </r>
       <r>    2.0242    1.0000 </r>
       <r>    2.0666    1.0000 </r>
       <r>    2.1200    1.0000 </r>
       <r>    2.1592    1.0000 </r>
       <r>    2.3676    1.0000 </r>
       <r>    2.5352    1.0000 </r>
       <r>    2.5777    1.0000 </r>
       <r>    2.6470    1.0000 </r>
       <r>    2.7783    1.0000 </r>
       <r>    3.1846    1.0000 </r>
       <r>    3.2392    1.0000 </r>
       <r>    3.2792    1.0000 </r>
       <r>    3.3035    1.0000 </r>
       <r>    3.3363    1.0000 </r>
       <r>    3.4207    1.0000 </r>
       <r>    3.5668    1.0000 </r>
       <r>    3.8499    1.0000 </r>
       <r>    3.8658    1.0000 </r>
       <r>    3.9527    1.0000 </r>
       <r>    4.0292    1.0000 </r>
       <r>    4.0530    1.0000 </r>
       <r>    4.1031    1.0000 </r>
       <r>    4.1250    1.0000 </r>
       <r>    4.2432    1.0000 </r>
       <r>    4.3053    1.0000 </r>
[...]
      </set>
     </set>
    </set>
   </array>
  </eigenvalues>
  <separator name="orbital magnetization" >
   <v name="MAGDIPOLOUT">      0.00000000      0.00000000      0.00000000</v>
  </separator>
  <dos>
   <i name="efermi">      8.19384712 </i>
   <total>
    <array>
     <dimension dim="1">gridpoints</dimension>
     <dimension dim="2">spin</dimension>
     <field>energy</field>
     <field>total</field>
     <field>integrated</field>
     <set>
      <set comment="spin 1">
       <r>    -9.3837     0.0000     0.0000 </r>
       <r>    -9.2945     0.0000     0.0000 </r>
       <r>    -9.2054     0.0000     0.0000 </r>
       <r>    -9.1163     0.0000     0.0000 </r>
       <r>    -9.0272    -0.0000    -0.0000 </r>
       <r>    -8.9381    -0.0000    -0.0000 </r>
       <r>    -8.8490    -0.0000    -0.0000 </r>
       <r>    -8.7598    -0.0000    -0.0000 </r>
       <r>    -8.6707    -0.0000    -0.0000 </r>
       <r>    -8.5816    -0.0000    -0.0000 </r>
       <r>    -8.4925    -0.0000    -0.0000 </r>
       <r>    -8.4034    -0.0000    -0.0000 </r>
       <r>    -8.3143    -0.0000    -0.0000 </r>
       <r>    -8.2251    -0.0000    -0.0000 </r>
       <r>    -8.1360    -0.0000    -0.0000 </r>
       <r>    -8.0469    -0.0000    -0.0000 </r>
       <r>    -7.9578    -0.0001    -0.0000 </r>
       <r>    -7.8687    -0.0013    -0.0001 </r>
       <r>    -7.7796    -0.0068    -0.0007 </r>
       <r>    -7.6905    -0.0226    -0.0027 </r>
       <r>    -7.6013    -0.0443    -0.0067 </r>
       <r>    -7.5122    -0.0301    -0.0094 </r>
       <r>    -7.4231     0.1269     0.0019 </r>
       <r>    -7.3340     0.6131     0.0566 </r>
       <r>    -7.2449     1.5732     0.1968 </r>
       <r>    -7.1558     2.9091     0.4560 </r>
       <r>    -7.0666     4.1948     0.8298 </r>
       <r>    -6.9775     4.7092     1.2495 </r>
       <r>    -6.8884     4.1015     1.6150 </r>
       <r>    -6.7993     3.1001     1.8913 </r>
       <r>    -6.7102     3.0807     2.1658 </r>
       <r>    -6.6211     4.8400     2.5971 </r>
       <r>    -6.5319     7.5611     3.2710 </r>
       <r>    -6.4428     9.2645     4.0966 </r>
       <r>    -6.3537     8.6391     4.8665 </r>
       <r>    -6.2646     6.3529     5.4326 </r>
       <r>    -6.1755     4.2297     5.8095 </r>
       <r>    -6.0864     3.7643     6.1450 </r>
       <r>    -5.9972     5.1971     6.6081 </r>
       <r>    -5.9081     7.3126     7.2598 </r>
       <r>    -5.8190     8.9826     8.0603 </r>
       <r>    -5.7299    10.0076     8.9521 </r>
       <r>    -5.6408    10.6237     9.8989 </r>
       <r>    -5.5517    11.0919    10.8873 </r>
       <r>    -5.4625    10.6539    11.8368 </r>
       <r>    -5.3734     8.7465    12.6162 </r>
       <r>    -5.2843     7.2218    13.2598 </r>
       <r>    -5.1952     8.3165    14.0009 </r>
       <r>    -5.1061    11.7320    15.0464 </r>
       <r>    -5.0170    14.4112    16.3307 </r>
       <r>    -4.9279    13.0764    17.4960 </r>
       <r>    -4.8387     8.4076    18.2453 </r>
       <r>    -4.7496     5.2127    18.7098 </r>
       <r>    -4.6605     6.9168    19.3262 </r>
       <r>    -4.5714    11.6202    20.3618 </r>
       <r>    -4.4823    15.6414    21.7557 </r>
       <r>    -4.3932    17.6551    23.3290 </r>
       <r>    -4.3040    17.3196    24.8725 </r>
       <r>    -4.2149    15.5289    26.2564 </r>
       <r>    -4.1258    15.6714    27.6529 </r>
       <r>    -4.0367    18.8977    29.3370 </r>
       <r>    -3.9476    21.0208    31.2103 </r>
       <r>    -3.8585    18.6867    32.8756 </r>
       <r>    -3.7693    14.8298    34.1972 </r>
       <r>    -3.6802    14.0293    35.4474 </r>
       <r>    -3.5911    16.1600    36.8875 </r>
       <r>    -3.5020    18.2682    38.5155 </r>
       <r>    -3.4129    18.9702    40.2061 </r>
       <r>    -3.3238    18.3515    41.8415 </r>
       <r>    -3.2346    17.3228    43.3852 </r>
       <r>    -3.1455    17.3153    44.9283 </r>
       <r>    -3.0564    18.2490    46.5546 </r>
       <r>    -2.9673    19.4345    48.2865 </r>
       <r>    -2.8782    21.4526    50.1983 </r>
       <r>    -2.7891    23.9959    52.3367 </r>
       <r>    -2.6999    24.8201    54.5486 </r>
       <r>    -2.6108    21.7426    56.4862 </r>
       <r>    -2.5217    15.6060    57.8769 </r>
       <r>    -2.4326    11.2453    58.8791 </r>
       <r>    -2.3435    12.1658    59.9632 </r>
       <r>    -2.2544    15.4075    61.3363 </r>
       <r>    -2.1653    15.1849    62.6895 </r>
       <r>    -2.0761    10.2192    63.6002 </r>
       <r>    -1.9870     4.3154    63.9848 </r>
       <r>    -1.8979     0.8180    64.0577 </r>
       <r>    -1.8088    -0.2347    64.0368 </r>
       <r>    -1.7197    -0.2525    64.0143 </r>
       <r>    -1.6306    -0.1146    64.0040 </r>
       <r>    -1.5414    -0.0359    64.0008 </r>
       <r>    -1.4523    -0.0081    64.0001 </r>
       <r>    -1.3632    -0.0013    64.0000 </r>
       <r>    -1.2741    -0.0001    64.0000 </r>
       <r>    -1.1850    -0.0001    64.0000 </r>
       <r>    -1.0959    -0.0008    63.9999 </r>
       <r>    -1.0067    -0.0055    63.9994 </r>
       <r>    -0.9176    -0.0238    63.9973 </r>
       <r>    -0.8285    -0.0544    63.9925 </r>
       <r>    -0.7394    -0.0147    63.9912 </r>
       <r>    -0.6503     0.2403    64.0126 </r>
       <r>    -0.5612     0.5893    64.0651 </r>
       <r>    -0.4720     0.6881    64.1264 </r>
       <r>    -0.3829     1.2317    64.2362 </r>
       <r>    -0.2938     4.0018    64.5928 </r>
       <r>    -0.2047     8.5282    65.3528 </r>
       <r>    -0.1156    11.0714    66.3394 </r>
       <r>    -0.0265     9.6885    67.2028 </r>
       <r>     0.0627     7.2658    67.8503 </r>
       <r>     0.1518     7.7416    68.5402 </r>
       <r>     0.2409    11.7749    69.5896 </r>
       <r>     0.3300    16.9861    71.1033 </r>
       <r>     0.4191    20.6452    72.9431 </r>
       <r>     0.5082    21.9309    74.8975 </r>
       <r>     0.5973    22.6664    76.9175 </r>
       <r>     0.6865    25.0659    79.1512 </r>
       <r>     0.7756    28.8786    81.7248 </r>
       <r>     0.8647    31.4489    84.5274 </r>
       <r>     0.9538    30.7029    87.2635 </r>
       <r>     1.0429    28.3853    89.7931 </r>
       <r>     1.1320    28.3678    92.3211 </r>
       <r>     1.2212    30.9615    95.0803 </r>
       <r>     1.3103    31.9346    97.9262 </r>
       <r>     1.3994    27.4660   100.3739 </r>
       <r>     1.4885    18.0174   101.9795 </r>
       <r>     1.5776     7.7598   102.6710 </r>
       <r>     1.6667     1.3395   102.7904 </r>
       <r>     1.7559     0.9049   102.8710 </r>
       <r>     1.8450     5.4429   103.3561 </r>
       <r>     1.9341    12.1756   104.4411 </r>
       <r>     2.0232    18.2433   106.0669 </r>
       <r>     2.1123    21.0638   107.9440 </r>
       <r>     2.2014    19.0046   109.6376 </r>
       <r>     2.2906    13.4792   110.8388 </r>
       <r>     2.3797     8.6632   111.6109 </r>
       <r>     2.4688     8.5170   112.3699 </r>
       <r>     2.5579    13.2720   113.5526 </r>
       <r>     2.6470    17.5662   115.1181 </r>
       <r>     2.7361    16.4046   116.5800 </r>
       <r>     2.8252    12.8174   117.7222 </r>
       <r>     2.9144    13.1902   118.8977 </r>
       <r>     3.0035    18.0605   120.5071 </r>
       <r>     3.0926    23.5049   122.6018 </r>
       <r>     3.1817    27.7769   125.0772 </r>
       <r>     3.2708    30.5695   127.8014 </r>
       <r>     3.3599    30.1644   130.4895 </r>
       <r>     3.4491    27.3492   132.9268 </r>
       <r>     3.5382    25.3089   135.1822 </r>
       <r>     3.6273    23.2676   137.2557 </r>
       <r>     3.7164    19.0301   138.9516 </r>
       <r>     3.8055    15.4408   140.3277 </r>
       <r>     3.8946    16.6405   141.8106 </r>
       <r>     3.9838    21.1343   143.6940 </r>
       <r>     4.0729    23.4550   145.7842 </r>
       <r>     4.1620    22.1752   147.7604 </r>
       <r>     4.2511    22.1338   149.7329 </r>
       <r>     4.3402    25.7800   152.0303 </r>
       <r>     4.4293    29.8713   154.6923 </r>
       <r>     4.5185    32.2805   157.5690 </r>
       <r>     4.6076    33.2949   160.5361 </r>
       <r>     4.6967    33.6251   163.5327 </r>
       <r>     4.7858    34.6592   166.6214 </r>
       <r>     4.8749    36.2829   169.8547 </r>
       <r>     4.9640    35.9054   173.0545 </r>
       <r>     5.0532    32.4607   175.9473 </r>
       <r>     5.1423    29.0677   178.5377 </r>
       <r>     5.2314    29.3117   181.1498 </r>
       <r>     5.3205    31.7439   183.9787 </r>
       <r>     5.4096    32.7702   186.8991 </r>
       <r>     5.4987    33.5723   189.8909 </r>
       <r>     5.5878    36.4287   193.1373 </r>
       <r>     5.6770    38.2552   196.5464 </r>
       <r>     5.7661    36.4821   199.7976 </r>
       <r>     5.8552    34.2512   202.8499 </r>
       <r>     5.9443    33.7156   205.8545 </r>
       <r>     6.0334    32.4685   208.7480 </r>
       <r>     6.1225    29.9778   211.4195 </r>
       <r>     6.2117    29.8138   214.0764 </r>
       <r>     6.3008    32.2299   216.9486 </r>
       <r>     6.3899    33.3445   219.9201 </r>
       <r>     6.4790    32.2541   222.7945 </r>
       <r>     6.5681    30.3383   225.4981 </r>
       <r>     6.6572    28.5436   228.0418 </r>
       <r>     6.7464    28.6521   230.5952 </r>
       <r>     6.8355    31.6201   233.4130 </r>
       <r>     6.9246    35.3494   236.5632 </r>
       <r>     7.0137    35.5325   239.7297 </r>
       <r>     7.1028    29.7695   242.3827 </r>
       <r>     7.1919    21.1516   244.2676 </r>
       <r>     7.2811    14.8531   245.5913 </r>
       <r>     7.3702    13.2708   246.7739 </r>
       <r>     7.4593    15.5317   248.1580 </r>
       <r>     7.5484    18.6862   249.8233 </r>
       <r>     7.6375    19.8492   251.5922 </r>
       <r>     7.7266    17.8124   253.1796 </r>
       <r>     7.8158    12.8603   254.3256 </r>
       <r>     7.9049     7.4405   254.9887 </r>
       <r>     7.9940     4.6495   255.4030 </r>
       <r>     8.0831     3.8607   255.7471 </r>
       <r>     8.1722     2.5148   255.9712 </r>
       <r>     8.2613     0.7429   256.0374 </r>
       <r>     8.3504    -0.1372   256.0252 </r>
       <r>     8.4396    -0.1933   256.0079 </r>
       <r>     8.5287    -0.0722   256.0015 </r>
       <r>     8.6178    -0.0148   256.0002 </r>
       <r>     8.7069    -0.0020   256.0000 </r>
       <r>     8.7960    -0.0016   255.9999 </r>
       <r>     8.8851    -0.0082   255.9991 </r>
       <r>     8.9743    -0.0274   255.9967 </r>
       <r>     9.0634    -0.0376   255.9933 </r>
       <r>     9.1525     0.0647   255.9991 </r>
       <r>     9.2416     0.3729   256.0323 </r>
       <r>     9.3307     0.7024   256.0949 </r>
       <r>     9.4198     0.7716   256.1637 </r>
       <r>     9.5090     0.8586   256.2402 </r>
       <r>     9.5981     1.3845   256.3636 </r>
       <r>     9.6872     1.7742   256.5217 </r>
       <r>     9.7763     1.2398   256.6322 </r>
       <r>     9.8654     0.2563   256.6550 </r>
       <r>     9.9545    -0.0802   256.6479 </r>
       <r>    10.0437     0.7747   256.7169 </r>
       <r>    10.1328     2.4236   256.9329 </r>
       <r>    10.2219     4.0882   257.2972 </r>
       <r>    10.3110     6.1162   257.8423 </r>
       <r>    10.4001     8.9133   258.6366 </r>
       <r>    10.4892    11.0647   259.6226 </r>
       <r>    10.5784    11.5314   260.6503 </r>
       <r>    10.6675    10.3913   261.5763 </r>
       <r>    10.7566     7.2168   262.2194 </r>
       <r>    10.8457     2.9405   262.4815 </r>
       <r>    10.9348    -0.0025   262.4813 </r>
       <r>    11.0239    -0.7963   262.4103 </r>
       <r>    11.1130     0.2035   262.4284 </r>
       <r>    11.2022     3.0558   262.7008 </r>
       <r>    11.2913     6.7765   263.3046 </r>
       <r>    11.3804     9.4145   264.1436 </r>
       <r>    11.4695    10.7187   265.0988 </r>
       <r>    11.5586    11.6564   266.1376 </r>
       <r>    11.6477    12.9223   267.2892 </r>
       <r>    11.7369    15.2241   268.6459 </r>
       <r>    11.8260    17.8328   270.2351 </r>
       <r>    11.9151    18.8376   271.9138 </r>
       <r>    12.0042    18.3134   273.5459 </r>
       <r>    12.0933    17.2008   275.0787 </r>
       <r>    12.1824    14.1263   276.3376 </r>
       <r>    12.2716     8.6779   277.1109 </r>
       <r>    12.3607     5.0922   277.5647 </r>
       <r>    12.4498     7.2644   278.2121 </r>
       <r>    12.5389    13.6782   279.4311 </r>
       <r>    12.6280    20.2813   281.2385 </r>
       <r>    12.7171    25.3710   283.4994 </r>
       <r>    12.8063    29.4111   286.1204 </r>
       <r>    12.8954    31.8525   288.9590 </r>
       <r>    12.9845    32.0917   291.8189 </r>
       <r>    13.0736    31.2534   294.6041 </r>
       <r>    13.1627    29.0599   297.1938 </r>
       <r>    13.2518    23.5683   299.2941 </r>
       <r>    13.3410    17.3658   300.8417 </r>
       <r>    13.4301    17.5830   302.4086 </r>
       <r>    13.5192    25.2717   304.6607 </r>
       <r>    13.6083    32.1931   307.5296 </r>
       <r>    13.6974    32.2642   310.4049 </r>
       <r>    13.7865    28.7887   312.9704 </r>
       <r>    13.8756    27.8479   315.4521 </r>
       <r>    13.9648    29.8838   318.1152 </r>
       <r>    14.0539    30.5704   320.8396 </r>
       <r>    14.1430    26.9975   323.2455 </r>
       <r>    14.2321    19.7431   325.0049 </r>
       <r>    14.3212    11.4050   326.0213 </r>
       <r>    14.4103     5.8301   326.5408 </r>
       <r>    14.4995     6.4900   327.1192 </r>
       <r>    14.5886    13.1237   328.2887 </r>
       <r>    14.6777    20.3320   330.1006 </r>
       <r>    14.7668    21.9811   332.0595 </r>
       <r>    14.8559    17.2964   333.6009 </r>
       <r>    14.9450     9.9783   334.4901 </r>
       <r>    15.0342     3.8151   334.8301 </r>
       <r>    15.1233     1.2288   334.9396 </r>
       <r>    15.2124     2.2356   335.1388 </r>
       <r>    15.3015     4.0154   335.4967 </r>
       <r>    15.3906     3.8075   335.8360 </r>
       <r>    15.4797     1.9012   336.0054 </r>
       <r>    15.5689     0.3075   336.0328 </r>
       <r>    15.6580    -0.1877   336.0161 </r>
       <r>    15.7471    -0.1332   336.0042 </r>
       <r>    15.8362    -0.0397   336.0007 </r>
       <r>    15.9253    -0.0069   336.0001 </r>
       <r>    16.0144    -0.0008   336.0000 </r>
       <r>    16.1036    -0.0001   336.0000 </r>
       <r>    16.1927    -0.0000   336.0000 </r>
       <r>    16.2818    -0.0000   336.0000 </r>
       <r>    16.3709    -0.0000   336.0000 </r>
       <r>    16.4600    -0.0000   336.0000 </r>
       <r>    16.5491    -0.0000   336.0000 </r>
       <r>    16.6382    -0.0000   336.0000 </r>
       <r>    16.7274     0.0000   336.0000 </r>
       <r>    16.8165     0.0000   336.0000 </r>
       <r>    16.9056     0.0000   336.0000 </r>
       <r>    16.9947     0.0000   336.0000 </r>
       <r>    17.0838     0.0000   336.0000 </r>
       <r>    17.1729     0.0000   336.0000 </r>
       <r>    17.2621     0.0000   336.0000 </r>
       <r>    17.3512     0.0000   336.0000 </r>
      </set>
     </set>
    </array>
   </total>
  </dos>
 </calculation>
 <structure name="finalpos" >
  <crystal>
   <varray name="basis" >
    <v>       8.74331558       0.00000000       0.00000000 </v>
    <v>       0.00000000       8.74331558       0.00000000 </v>
    <v>       0.00000000       0.00000000       8.74331558 </v>
   </varray>
   <i name="volume">    668.38771987 </i>
   <varray name="rec_basis" >
    <v>       0.11437309       0.00000000       0.00000000 </v>
    <v>       0.00000000       0.11437309       0.00000000 </v>
    <v>       0.00000000       0.00000000       0.11437309 </v>
   </varray>
  </crystal>
  <varray name="positions" >
   <v>       0.12609637       0.11917355       0.12779341 </v>
   <v>       0.12789877       0.37594198       0.37573797 </v>
   <v>       0.38027322       0.13268526       0.37004639 </v>
   <v>       0.37643746       0.36995005       0.13543079 </v>
   <v>       0.12327304       0.13577096       0.62343139 </v>
   <v>       0.12006936       0.37627180       0.87698114 </v>
   <v>       0.37450970       0.13099581       0.87928652 </v>
   <v>       0.37744916       0.37260561       0.62733526 </v>
   <v>       0.12592969       0.62606793       0.12735506 </v>
   <v>       0.13278018       0.87960568       0.37949444 </v>
   <v>       0.37831870       0.62284680       0.37125118 </v>
   <v>       0.37237828       0.87561649       0.13069879 </v>
   <v>       0.12351859       0.62234846       0.62541594 </v>
   <v>       0.13087541       0.87644706       0.87011689 </v>
   <v>       0.37597386       0.62106222       0.87242036 </v>
   <v>       0.37625857       0.87450059       0.62383348 </v>
   <v>       0.62288085       0.12685220       0.12280839 </v>
   <v>       0.62320860       0.37697012       0.37198572 </v>
   <v>       0.87738178       0.12190908       0.37260988 </v>
   <v>       0.87159176       0.36720375       0.12808885 </v>
   <v>       0.62169487       0.12731621       0.62441003 </v>
   <v>       0.60691168       0.37599488       0.87514861 </v>
   <v>       0.87726151       0.12201716       0.86987860 </v>
   <v>       0.87667442       0.37497059       0.62784070 </v>
   <v>       0.62813321       0.61700800       0.11930616 </v>
   <v>       0.63037703       0.88134120       0.37500265 </v>
   <v>       0.87809673       0.62456046       0.37807581 </v>
   <v>       0.86989343       0.86849630       0.12632149 </v>
   <v>       0.62820761       0.62459499       0.63056881 </v>
   <v>       0.62672221       0.86801529       0.87675711 </v>
   <v>       0.87755000       0.62416202       0.86963038 </v>
   <v>       0.87834911       0.87955971       0.62562933 </v>
   <v>       0.00481702       0.99435521       0.00617931 </v>
   <v>       0.00463383       0.25449822       0.25462683 </v>
   <v>       0.25021798       0.00601324       0.24996794 </v>
   <v>       0.25645954       0.25239977       0.99739318 </v>
   <v>       0.00242286       0.99258233       0.50064442 </v>
   <v>       0.00279873       0.25599981       0.75520341 </v>
   <v>       0.24540379       0.00256162       0.74818908 </v>
   <v>       0.24654489       0.24503347       0.49473456 </v>
   <v>       0.99339282       0.49534481       0.00428309 </v>
   <v>       0.99903467       0.74252374       0.25608327 </v>
   <v>       0.24976578       0.50030469       0.24747579 </v>
   <v>       0.24665081       0.74149632       0.99844623 </v>
   <v>       0.99512298       0.50268036       0.48996933 </v>
   <v>       0.00413193       0.75196528       0.74734964 </v>
   <v>       0.25262250       0.50398689       0.74599861 </v>
   <v>       0.25300712       0.74734969       0.51426318 </v>
   <v>       0.49646158       0.00491458       0.99624695 </v>
   <v>       0.49535845       0.24776504       0.25297848 </v>
   <v>       0.74802693       0.00586302       0.24877931 </v>
   <v>       0.74651424       0.24676842       0.00171718 </v>
   <v>       0.50093036       0.99540837       0.50052486 </v>
   <v>       0.50058359       0.25449311       0.74997752 </v>
   <v>       0.75237551       0.00485579       0.75303153 </v>
   <v>       0.75002626       0.25135324       0.49553786 </v>
   <v>       0.50922830       0.49730827       0.99829532 </v>
   <v>       0.49328980       0.74533132       0.25047174 </v>
   <v>       0.75107274       0.50919532       0.25405111 </v>
   <v>       0.74874274       0.75220520       0.00810229 </v>
   <v>       0.50067710       0.49498423       0.50114178 </v>
   <v>       0.49472077       0.75604898       0.74037989 </v>
   <v>       0.75105201       0.49849843       0.75172881 </v>
   <v>       0.75726286       0.75160493       0.50294860 </v>
  </varray>
 </structure>
</modeling>
