unknown system                          
           1
     8.743316    0.000000    0.000000
     0.000000    8.743316    0.000000
     0.000000    0.000000    8.743316
   C    Si
    32    32
Direct configuration=     1
   0.12609637  0.11917355  0.12779341
   0.12789877  0.37594198  0.37573797
   0.38027322  0.13268526  0.37004639
   0.37643746  0.36995005  0.13543079
   0.12327304  0.13577096  0.62343139
   0.12006936  0.37627180  0.87698114
   0.37450970  0.13099581  0.87928652
   0.37744916  0.37260561  0.62733526
   0.12592969  0.62606793  0.12735506
   0.13278018  0.87960568  0.37949444
   0.37831870  0.62284680  0.37125118
   0.37237828  0.87561649  0.13069879
   0.12351859  0.62234846  0.62541594
   0.13087541  0.87644706  0.87011689
   0.37597386  0.62106222  0.87242036
   0.37625857  0.87450059  0.62383348
   0.62288085  0.12685220  0.12280839
   0.62320860  0.37697012  0.37198572
   0.87738178  0.12190908  0.37260988
   0.87159176  0.36720375  0.12808885
   0.62169487  0.12731621  0.62441003
   0.60691168  0.37599488  0.87514861
   0.87726151  0.12201716  0.86987860
   0.87667442  0.37497059  0.62784070
   0.62813321  0.61700800  0.11930616
   0.63037703  0.88134120  0.37500265
   0.87809673  0.62456046  0.37807581
   0.86989343  0.86849630  0.12632149
   0.62820761  0.62459499  0.63056881
   0.62672221  0.86801529  0.87675711
   0.87755000  0.62416202  0.86963038
   0.87834911  0.87955971  0.62562933
   0.00481702  0.99435521  0.00617931
   0.00463383  0.25449822  0.25462683
   0.25021798  0.00601324  0.24996794
   0.25645954  0.25239977  0.99739318
   0.00242286  0.99258233  0.50064442
   0.00279873  0.25599981  0.75520341
   0.24540379  0.00256162  0.74818908
   0.24654489  0.24503347  0.49473456
   0.99339282  0.49534481  0.00428309
   0.99903467  0.74252374  0.25608327
   0.24976578  0.50030469  0.24747579
   0.24665081  0.74149632  0.99844623
   0.99512298  0.50268036  0.48996933
   0.00413193  0.75196528  0.74734964
   0.25262250  0.50398689  0.74599861
   0.25300712  0.74734969  0.51426318
   0.49646158  0.00491458  0.99624695
   0.49535845  0.24776504  0.25297848
   0.74802693  0.00586302  0.24877931
   0.74651424  0.24676842  0.00171718
   0.50093036  0.99540837  0.50052486
   0.50058359  0.25449311  0.74997752
   0.75237551  0.00485579  0.75303153
   0.75002626  0.25135324  0.49553786
   0.50922830  0.49730827  0.99829532
   0.49328980  0.74533132  0.25047174
   0.75107274  0.50919532  0.25405111
   0.74874274  0.75220520  0.00810229
   0.50067710  0.49498423  0.50114178
   0.49472077  0.75604898  0.74037989
   0.75105201  0.49849843  0.75172881
   0.75726286  0.75160493  0.50294860
