    8    8    1    1
  0.1044356E+02  0.4371658E-09  0.4371658E-09  0.4371658E-09  0.5000000E-15
  1.000000000000000E-004
  CAR 
 unknown system                          
     32     14     24
 
  0.0000000E+00  0.0000000E+00  0.0000000E+00  0.3703704E-01
    1       -7.325676   1.000000
    2       -2.352519   1.000000
    3       -2.352510   1.000000
    4       -2.352507   1.000000
    5        0.239534   1.000000
    6        0.239534   1.000000
    7        0.239534   1.000000
    8        4.839408   1.000000
    9        4.839409   1.000000
   10        4.839410   1.000000
   11        4.839414   1.000000
   12        4.839415   1.000000
   13        4.839415   1.000000
   14        8.016926   0.998628
   15        8.016926   0.998628
   16        8.016926   0.998628
   17        9.369385  -0.000000
   18        9.369385  -0.000000
   19        9.369385  -0.000000
   20       12.295564  -0.000000
   21       12.295564  -0.000000
   22       12.295564  -0.000000
   23       14.126665   0.000000
   24       15.247147   0.000000
 
  0.3333333E+00  0.0000000E+00  0.0000000E+00  0.7407407E-01
    1       -6.611649   1.000000
    2       -4.572622   1.000000
    3       -2.187010   1.000000
    4       -2.187006   1.000000
    5        0.739584   1.000000
    6        0.739584   1.000000
    7        2.955636   1.000000
    8        3.534015   1.000000
    9        3.534016   1.000000
   10        3.657179   1.000000
   11        3.657181   1.000000
   12        5.415907   1.000000
   13        5.415907   1.000000
   14        6.208091   1.000000
   15        6.908406   1.000000
   16        6.908406   1.000000
   17       10.635164  -0.000000
   18       11.989738  -0.000000
   19       11.989740  -0.000000
   20       13.183897  -0.000000
   21       13.498368  -0.000000
   22       15.046596   0.000000
   23       15.046596   0.000000
   24       15.266866   0.000000
 
  0.0000000E+00  0.3333333E+00  0.0000000E+00  0.7407407E-01
    1       -6.611649   1.000000
    2       -4.572622   1.000000
    3       -2.187012   1.000000
    4       -2.187003   1.000000
    5        0.739584   1.000000
    6        0.739584   1.000000
    7        2.955636   1.000000
    8        3.534015   1.000000
    9        3.534016   1.000000
   10        3.657177   1.000000
   11        3.657182   1.000000
   12        5.415907   1.000000
   13        5.415907   1.000000
   14        6.208091   1.000000
   15        6.908406   1.000000
   16        6.908406   1.000000
   17       10.635164  -0.000000
   18       11.989737  -0.000000
   19       11.989740  -0.000000
   20       13.183897  -0.000000
   21       13.498368  -0.000000
   22       15.046596   0.000000
   23       15.046596   0.000000
   24       15.266866   0.000000
 
  0.3333333E+00  0.3333333E+00  0.0000000E+00  0.7407407E-01
    1       -5.922198   1.000000
    2       -4.004260   1.000000
    3       -4.004254   1.000000
    4       -2.736482   1.000000
    5        0.990188   1.000000
    6        2.069115   1.000000
    7        2.069117   1.000000
    8        2.417658   1.000000
    9        3.932455   1.000000
   10        3.932460   1.000000
   11        4.110126   1.000000
   12        5.588020   1.000000
   13        5.604136   1.000000
   14        5.604143   1.000000
   15        5.846990   1.000000
   16        7.632962   1.000343
   17       11.816283  -0.000000
   18       12.887698  -0.000000
   19       12.887698  -0.000000
   20       14.983288   0.000000
   21       15.505909   0.000000
   22       15.702576   0.000000
   23       15.702576   0.000000
   24       16.012853   0.000000
 
 -0.3333333E+00  0.3333333E+00  0.0000000E+00  0.7407407E-01
    1       -5.922198   1.000000
    2       -4.004260   1.000000
    3       -4.004254   1.000000
    4       -2.736482   1.000000
    5        0.990188   1.000000
    6        2.069115   1.000000
    7        2.069117   1.000000
    8        2.417658   1.000000
    9        3.932455   1.000000
   10        3.932460   1.000000
   11        4.110126   1.000000
   12        5.588020   1.000000
   13        5.604136   1.000000
   14        5.604143   1.000000
   15        5.846990   1.000000
   16        7.632962   1.000343
   17       11.816283  -0.000000
   18       12.887698  -0.000000
   19       12.887698  -0.000000
   20       14.983288   0.000000
   21       15.505909   0.000000
   22       15.702576   0.000000
   23       15.702576   0.000000
   24       16.012852   0.000000
 
  0.0000000E+00  0.0000000E+00  0.3333333E+00  0.7407407E-01
    1       -6.611649   1.000000
    2       -4.572622   1.000000
    3       -2.187012   1.000000
    4       -2.187003   1.000000
    5        0.739584   1.000000
    6        0.739584   1.000000
    7        2.955636   1.000000
    8        3.534016   1.000000
    9        3.534016   1.000000
   10        3.657177   1.000000
   11        3.657182   1.000000
   12        5.415907   1.000000
   13        5.415907   1.000000
   14        6.208091   1.000000
   15        6.908406   1.000000
   16        6.908406   1.000000
   17       10.635164  -0.000000
   18       11.989738  -0.000000
   19       11.989740  -0.000000
   20       13.183897  -0.000000
   21       13.498368  -0.000000
   22       15.046596   0.000000
   23       15.046596   0.000000
   24       15.266866   0.000000
 
  0.3333333E+00  0.0000000E+00  0.3333333E+00  0.7407407E-01
    1       -5.922198   1.000000
    2       -4.004260   1.000000
    3       -4.004254   1.000000
    4       -2.736482   1.000000
    5        0.990188   1.000000
    6        2.069115   1.000000
    7        2.069117   1.000000
    8        2.417658   1.000000
    9        3.932455   1.000000
   10        3.932460   1.000000
   11        4.110126   1.000000
   12        5.588020   1.000000
   13        5.604136   1.000000
   14        5.604143   1.000000
   15        5.846990   1.000000
   16        7.632962   1.000343
   17       11.816283  -0.000000
   18       12.887698  -0.000000
   19       12.887698  -0.000000
   20       14.983288   0.000000
   21       15.505909   0.000000
   22       15.702575   0.000000
   23       15.702576   0.000000
   24       16.012852   0.000000
 
 -0.3333333E+00  0.0000000E+00  0.3333333E+00  0.7407407E-01
    1       -5.922198   1.000000
    2       -4.004260   1.000000
    3       -4.004254   1.000000
    4       -2.736482   1.000000
    5        0.990188   1.000000
    6        2.069116   1.000000
    7        2.069117   1.000000
    8        2.417658   1.000000
    9        3.932455   1.000000
   10        3.932460   1.000000
   11        4.110126   1.000000
   12        5.588020   1.000000
   13        5.604136   1.000000
   14        5.604143   1.000000
   15        5.846990   1.000000
   16        7.632962   1.000343
   17       11.816283  -0.000000
   18       12.887698  -0.000000
   19       12.887698  -0.000000
   20       14.983288   0.000000
   21       15.505909   0.000000
   22       15.702576   0.000000
   23       15.702576   0.000000
   24       16.012882   0.000000
 
  0.0000000E+00  0.3333333E+00  0.3333333E+00  0.7407407E-01
    1       -5.922198   1.000000
    2       -4.004258   1.000000
    3       -4.004256   1.000000
    4       -2.736482   1.000000
    5        0.990188   1.000000
    6        2.069116   1.000000
    7        2.069117   1.000000
    8        2.417658   1.000000
    9        3.932456   1.000000
   10        3.932459   1.000000
   11        4.110126   1.000000
   12        5.588020   1.000000
   13        5.604138   1.000000
   14        5.604141   1.000000
   15        5.846990   1.000000
   16        7.632962   1.000343
   17       11.816283  -0.000000
   18       12.887698  -0.000000
   19       12.887698  -0.000000
   20       14.983288   0.000000
   21       15.505909   0.000000
   22       15.702576   0.000000
   23       15.702576   0.000000
   24       16.012852   0.000000
 
  0.3333333E+00  0.3333333E+00  0.3333333E+00  0.7407407E-01
    1       -5.276696   1.000000
    2       -3.650664   1.000000
    3       -3.650657   1.000000
    4       -3.650654   1.000000
    5        0.277232   1.000000
    6        0.277232   1.000000
    7        0.277233   1.000000
    8        1.860012   1.000000
    9        5.243205   1.000000
   10        5.243211   1.000000
   11        5.243214   1.000000
   12        6.265552   1.000000
   13        6.265554   1.000000
   14        6.265558   1.000000
   15        7.169101   1.000000
   16        7.169102   1.000000
   17       12.816243  -0.000000
   18       12.816243  -0.000000
   19       12.816243  -0.000000
   20       13.606508  -0.000000
   21       15.602147   0.000000
   22       15.644332   0.000000
   23       15.762680   0.000000
   24       15.762685   0.000000
 
 -0.3333333E+00  0.3333333E+00  0.3333333E+00  0.7407407E-01
    1       -5.276696   1.000000
    2       -3.650664   1.000000
    3       -3.650657   1.000000
    4       -3.650654   1.000000
    5        0.277232   1.000000
    6        0.277232   1.000000
    7        0.277233   1.000000
    8        1.860012   1.000000
    9        5.243205   1.000000
   10        5.243211   1.000000
   11        5.243214   1.000000
   12        6.265552   1.000000
   13        6.265554   1.000000
   14        6.265558   1.000000
   15        7.169101   1.000000
   16        7.169101   1.000000
   17       12.816243  -0.000000
   18       12.816243  -0.000000
   19       12.816243  -0.000000
   20       13.606508  -0.000000
   21       15.602147   0.000000
   22       15.708115   0.000000
   23       15.762681   0.000000
   24       15.762684   0.000000
 
  0.0000000E+00 -0.3333333E+00  0.3333333E+00  0.7407407E-01
    1       -5.922198   1.000000
    2       -4.004258   1.000000
    3       -4.004255   1.000000
    4       -2.736482   1.000000
    5        0.990188   1.000000
    6        2.069116   1.000000
    7        2.069116   1.000000
    8        2.417658   1.000000
    9        3.932457   1.000000
   10        3.932459   1.000000
   11        4.110126   1.000000
   12        5.588020   1.000000
   13        5.604138   1.000000
   14        5.604142   1.000000
   15        5.846990   1.000000
   16        7.632962   1.000343
   17       11.816283  -0.000000
   18       12.887698  -0.000000
   19       12.887698  -0.000000
   20       14.983288   0.000000
   21       15.505909   0.000000
   22       15.702576   0.000000
   23       15.702576   0.000000
   24       16.012852   0.000000
 
  0.3333333E+00 -0.3333333E+00  0.3333333E+00  0.7407407E-01
    1       -5.276696   1.000000
    2       -3.650664   1.000000
    3       -3.650657   1.000000
    4       -3.650654   1.000000
    5        0.277232   1.000000
    6        0.277232   1.000000
    7        0.277233   1.000000
    8        1.860012   1.000000
    9        5.243205   1.000000
   10        5.243212   1.000000
   11        5.243214   1.000000
   12        6.265552   1.000000
   13        6.265554   1.000000
   14        6.265558   1.000000
   15        7.169101   1.000000
   16        7.169102   1.000000
   17       12.816243  -0.000000
   18       12.816243  -0.000000
   19       12.816243  -0.000000
   20       13.606508  -0.000000
   21       15.602147   0.000000
   22       15.705866   0.000000
   23       15.762680   0.000000
   24       15.762684   0.000000
 
 -0.3333333E+00 -0.3333333E+00  0.3333333E+00  0.7407407E-01
    1       -5.276696   1.000000
    2       -3.650664   1.000000
    3       -3.650657   1.000000
    4       -3.650654   1.000000
    5        0.277232   1.000000
    6        0.277232   1.000000
    7        0.277233   1.000000
    8        1.860012   1.000000
    9        5.243205   1.000000
   10        5.243212   1.000000
   11        5.243214   1.000000
   12        6.265552   1.000000
   13        6.265554   1.000000
   14        6.265558   1.000000
   15        7.169101   1.000000
   16        7.169102   1.000000
   17       12.816243  -0.000000
   18       12.816243  -0.000000
   19       12.816243  -0.000000
   20       13.606508  -0.000000
   21       15.602147   0.000000
   22       15.734801   0.000000
   23       15.762679   0.000000
   24       15.762684   0.000000
