       N       E                     dE             d eps       ncg     rms          rms(c)
DAV:   1     0.643045296433E+02    0.64305E+02   -0.12438E+04   672   0.955E+02
DAV:   2    -0.613693489471E+02   -0.12567E+03   -0.11818E+03   912   0.189E+02
DAV:   3    -0.674149389737E+02   -0.60456E+01   -0.60155E+01   888   0.400E+01
DAV:   4    -0.674909230210E+02   -0.75984E-01   -0.75916E-01   864   0.515E+00
DAV:   5    -0.674924519477E+02   -0.15289E-02   -0.15287E-02   864   0.677E-01    0.174E+01
DAV:   6    -0.604051511432E+02    0.70873E+01   -0.20719E+01   824   0.204E+01    0.785E+00
DAV:   7    -0.602417121197E+02    0.16344E+00   -0.21087E+00   920   0.662E+00    0.348E+00
DAV:   8    -0.602114182343E+02    0.30294E-01   -0.12535E-01   832   0.180E+00    0.796E-01
DAV:   9    -0.602086419500E+02    0.27763E-02   -0.18645E-02   848   0.711E-01    0.181E-01
DAV:  10    -0.602091307235E+02   -0.48877E-03   -0.18349E-03   840   0.218E-01    0.857E-02
DAV:  11    -0.602091688385E+02   -0.38115E-04   -0.24513E-04   872   0.897E-02    0.206E-02
DAV:  12    -0.602091712819E+02   -0.24435E-05   -0.97811E-06   840   0.176E-02    0.668E-03
DAV:  13    -0.602091720299E+02   -0.74793E-06   -0.57269E-07   936   0.431E-03    0.162E-03
DAV:  14    -0.602091723341E+02   -0.30423E-06   -0.44450E-08   856   0.122E-03    0.117E-03
DAV:  15    -0.602091723505E+02   -0.16421E-07   -0.98239E-09   616   0.633E-04    0.559E-04
DAV:  16    -0.602091723437E+02    0.68540E-08   -0.77607E-09   576   0.475E-04
   1 F= -.60209172E+02 E0= -.60209645E+02  d E =0.141655E-02
