       N       E                     dE             d eps       ncg     rms          rms(c)
DAV:   1     0.669543999031E+03    0.66954E+03   -0.99560E+04  4704   0.111E+03
DAV:   2    -0.462215527516E+03   -0.11318E+04   -0.10729E+04  5824   0.221E+02
DAV:   3    -0.537198312068E+03   -0.74983E+02   -0.74284E+02  5680   0.561E+01
DAV:   4    -0.538857576452E+03   -0.16593E+01   -0.16522E+01  5704   0.905E+00
DAV:   5    -0.538904142330E+03   -0.46566E-01   -0.46487E-01  5592   0.143E+00    0.493E+01
DAV:   6    -0.482036606044E+03    0.56868E+02   -0.19063E+02  5368   0.235E+01    0.219E+01
DAV:   7    -0.480698434029E+03    0.13382E+01   -0.15871E+01  5824   0.709E+00    0.977E+00
DAV:   8    -0.480467899755E+03    0.23053E+00   -0.10328E+00  5408   0.199E+00    0.269E+00
DAV:   9    -0.480451220379E+03    0.16679E-01   -0.15058E-01  5496   0.850E-01    0.455E-01
DAV:  10    -0.480453971584E+03   -0.27512E-02   -0.15149E-02  5776   0.278E-01    0.257E-01
DAV:  11    -0.480455111991E+03   -0.11404E-02   -0.23745E-03  5240   0.123E-01    0.102E-01
DAV:  12    -0.480455233272E+03   -0.12128E-03   -0.42875E-04  5992   0.518E-02    0.434E-02
DAV:  13    -0.480455250491E+03   -0.17219E-04   -0.12037E-04  5096   0.248E-02    0.101E-02
DAV:  14    -0.480455254673E+03   -0.41817E-05   -0.57483E-06  5672   0.595E-03    0.538E-03
DAV:  15    -0.480455256606E+03   -0.19332E-05   -0.30423E-06  5624   0.389E-03    0.393E-03
DAV:  16    -0.480455256710E+03   -0.10341E-06   -0.44243E-07  5808   0.177E-03    0.120E-03
DAV:  17    -0.480455257154E+03   -0.44443E-06   -0.12012E-07  5280   0.762E-04    0.795E-04
DAV:  18    -0.480455257184E+03   -0.29762E-07   -0.58297E-09  2776   0.212E-04    0.330E-04
DAV:  19    -0.480455257153E+03    0.30850E-07   -0.80738E-09  2696   0.203E-04    0.116E-04
DAV:  20    -0.480455257158E+03   -0.47803E-08   -0.12354E-09  2688   0.106E-04
   1 F= -.48045526E+03 E0= -.48045874E+03  d E =0.104536E-01
