unknown system                          
           1
     8.743316    0.000000    0.000000
     0.000000    8.743316    0.000000
     0.000000    0.000000    8.743316
   C    Si
    32    32
Direct configuration=     1
   0.12375816  0.12142910  0.12771940
   0.12450230  0.37684681  0.37346290
   0.36879918  0.11746865  0.37540224
   0.37409367  0.37296101  0.12725741
   0.12581405  0.12752542  0.62371181
   0.12755747  0.38083610  0.87553547
   0.36710496  0.12532228  0.87499366
   0.37099831  0.37116625  0.62565697
   0.12706483  0.62242652  0.11870681
   0.12594513  0.87301276  0.37337425
   0.37548710  0.62728745  0.37246942
   0.37892978  0.88038299  0.12507490
   0.12581606  0.62554436  0.62385406
   0.12822801  0.87458644  0.87750192
   0.37509321  0.63318930  0.87342659
   0.37612977  0.87484306  0.62473786
   0.62550975  0.12579224  0.12902752
   0.62712306  0.37370734  0.37236969
   0.87045212  0.12456075  0.37317466
   0.87609456  0.37571547  0.12490781
   0.61705720  0.12738341  0.62659751
   0.62833151  0.37610488  0.87377547
   0.87417822  0.12810408  0.87923173
   0.87887020  0.37454184  0.62522046
   0.62638793  0.62943105  0.12348989
   0.62455599  0.87708384  0.37329221
   0.87693008  0.62033829  0.37171296
   0.87357648  0.87665019  0.12096792
   0.62842036  0.62905451  0.62848281
   0.62343507  0.87513874  0.87185295
   0.87432531  0.62382863  0.87798714
   0.87359800  0.87834853  0.62527079
   0.00529468  0.99958309  0.00047452
   0.00079992  0.24682758  0.25085438
   0.25277764  0.99724213  0.24512428
   0.24764179  0.24761370  0.00402898
   0.99658385  0.00300584  0.49950171
   0.99523080  0.24793712  0.75212713
   0.24765070  0.00337478  0.74734573
   0.24919795  0.24429992  0.50607264
   0.99845289  0.50853559  0.99662525
   0.00548380  0.74883717  0.25100078
   0.25203417  0.49887108  0.25055252
   0.24853432  0.74944442  0.00108952
   0.99490901  0.49702386  0.50398342
   0.99682703  0.75056886  0.74998213
   0.25022240  0.50302005  0.75210703
   0.25324265  0.75326161  0.49986792
   0.50185468  0.00244781  0.99821361
   0.49353856  0.25469766  0.25067323
   0.74853917  0.99915352  0.24406169
   0.74433303  0.25054928  0.00291916
   0.50271611  0.00137307  0.50077387
   0.49689787  0.25085445  0.75093968
   0.74553129  0.99567747  0.75088534
   0.74770596  0.24987688  0.50177355
   0.50065397  0.49718642  0.00311696
   0.49953783  0.74648440  0.25358249
   0.74217332  0.50322993  0.24705509
   0.75205898  0.74871179  0.99742873
   0.50073865  0.49776248  0.49953493
   0.49812879  0.75056094  0.75145443
   0.74191195  0.50151063  0.75524921
   0.74951346  0.74810149  0.50107023
