       N       E                     dE             d eps       ncg     rms          rms(c)
DAV:   1     0.670854211096E+03    0.67085E+03   -0.99574E+04  4704   0.111E+03
DAV:   2    -0.460861590910E+03   -0.11317E+04   -0.10714E+04  5816   0.221E+02
DAV:   3    -0.536576427991E+03   -0.75715E+02   -0.74994E+02  5656   0.563E+01
DAV:   4    -0.538264822396E+03   -0.16884E+01   -0.16813E+01  5712   0.910E+00
DAV:   5    -0.538311097653E+03   -0.46275E-01   -0.46205E-01  5576   0.143E+00    0.494E+01
DAV:   6    -0.481072409338E+03    0.57239E+02   -0.19162E+02  5360   0.236E+01    0.220E+01
DAV:   7    -0.479732968959E+03    0.13394E+01   -0.15985E+01  5848   0.713E+00    0.980E+00
DAV:   8    -0.479500885698E+03    0.23208E+00   -0.10400E+00  5424   0.199E+00    0.273E+00
DAV:   9    -0.479483863729E+03    0.17022E-01   -0.14956E-01  5488   0.845E-01    0.455E-01
DAV:  10    -0.479486806051E+03   -0.29423E-02   -0.13938E-02  5680   0.266E-01    0.249E-01
DAV:  11    -0.479487858369E+03   -0.10523E-02   -0.20546E-03  5256   0.118E-01    0.933E-02
DAV:  12    -0.479487935981E+03   -0.77612E-04   -0.36207E-04  6024   0.475E-02    0.418E-02
DAV:  13    -0.479487953716E+03   -0.17734E-04   -0.10431E-04  5128   0.244E-02    0.106E-02
DAV:  14    -0.479487958498E+03   -0.47825E-05   -0.66369E-06  5544   0.636E-03    0.561E-03
DAV:  15    -0.479487960223E+03   -0.17247E-05   -0.30422E-06  5736   0.384E-03    0.427E-03
DAV:  16    -0.479487960034E+03    0.18846E-06   -0.45534E-07  5928   0.174E-03    0.117E-03
DAV:  17    -0.479487960451E+03   -0.41654E-06   -0.10605E-07  5216   0.723E-04    0.722E-04
DAV:  18    -0.479487960491E+03   -0.39956E-07   -0.73563E-09  2760   0.233E-04    0.263E-04
DAV:  19    -0.479487960475E+03    0.16298E-07   -0.74325E-09  2712   0.195E-04    0.118E-04
DAV:  20    -0.479487960485E+03   -0.10645E-07   -0.11769E-09  2704   0.100E-04    0.852E-05
DAV:  21    -0.479487960476E+03    0.90477E-08   -0.67562E-10  2688   0.553E-05
   1 F= -.47948796E+03 E0= -.47949156E+03  d E =0.107991E-01
