unknown system                          
           1
     8.743316    0.000000    0.000000
     0.000000    8.743316    0.000000
     0.000000    0.000000    8.743316
   C    Si
    32    32
Direct configuration=     1
   0.13233039  0.12038547  0.12613797
   0.12423453  0.37482959  0.37669901
   0.38123264  0.12026850  0.37220019
   0.36450197  0.37121992  0.13094817
   0.12656914  0.12279524  0.62890154
   0.13110769  0.37415173  0.87776663
   0.38087289  0.13401088  0.86518402
   0.38208828  0.37004058  0.61723374
   0.11885617  0.62470411  0.12438412
   0.11740436  0.87549855  0.37634112
   0.37640025  0.63064980  0.37490428
   0.37313722  0.88164508  0.11872455
   0.13301835  0.62353809  0.62647557
   0.11999145  0.87583229  0.87843394
   0.37370671  0.62004600  0.87561524
   0.37135859  0.87547516  0.62862340
   0.62138611  0.12612683  0.12163902
   0.62926043  0.38133087  0.37118670
   0.87467155  0.12560247  0.38201907
   0.87437393  0.37285328  0.12433462
   0.62331483  0.12235379  0.62308474
   0.63099286  0.37120048  0.87912628
   0.87698099  0.12954408  0.88009594
   0.87198139  0.37726224  0.61909642
   0.62353898  0.62699550  0.12458952
   0.62883992  0.87546516  0.37459853
   0.87361060  0.62719104  0.37614418
   0.87699789  0.87213297  0.12516453
   0.61872418  0.63050774  0.62837905
   0.62528169  0.86684695  0.88372220
   0.87903003  0.61851465  0.88346162
   0.87775265  0.87651512  0.62401115
   0.00412273  0.00263732  0.00191665
   0.99511477  0.24687249  0.24964132
   0.24803100  0.00194898  0.24876814
   0.25068632  0.25222661  0.99809089
   0.99750257  0.00420187  0.49934712
   0.00548889  0.25049585  0.75145452
   0.24724429  0.99563675  0.74907025
   0.24785482  0.24783600  0.49566085
   0.99811259  0.49545006  0.99470739
   0.00136781  0.75281012  0.25852553
   0.24821353  0.49868684  0.25733285
   0.24623805  0.75744384  0.00218533
   0.00128520  0.49545552  0.50390204
   0.99495258  0.74972409  0.75364632
   0.24325442  0.50277555  0.75140262
   0.24905664  0.75019795  0.50187241
   0.50045936  0.00124928  0.00310942
   0.49810557  0.24887801  0.24801061
   0.75096808  0.00097123  0.24887565
   0.74796184  0.25335802  0.00393044
   0.49531122  0.00086745  0.49933395
   0.49704252  0.25294981  0.74546078
   0.74470743  0.00163925  0.75245267
   0.75276102  0.24844052  0.49606016
   0.50252296  0.50570713  0.99854806
   0.49436669  0.74868698  0.24811045
   0.75208724  0.50089309  0.25152364
   0.75375647  0.75388882  0.00089675
   0.49612666  0.49493030  0.49543439
   0.49849249  0.75162126  0.75462909
   0.74652241  0.49607668  0.75081654
   0.74411156  0.74539850  0.50266816
