       N       E                     dE             d eps       ncg     rms          rms(c)
DAV:   1     0.672304553930E+03    0.67230E+03   -0.99591E+04  4704   0.111E+03
DAV:   2    -0.459691819736E+03   -0.11320E+04   -0.10733E+04  5808   0.221E+02
DAV:   3    -0.535630347420E+03   -0.75939E+02   -0.75206E+02  5696   0.565E+01
DAV:   4    -0.537338472070E+03   -0.17081E+01   -0.17011E+01  5736   0.915E+00
DAV:   5    -0.537383894374E+03   -0.45422E-01   -0.45350E-01  5568   0.143E+00    0.496E+01
DAV:   6    -0.479639393905E+03    0.57745E+02   -0.19259E+02  5344   0.238E+01    0.221E+01
DAV:   7    -0.478345933847E+03    0.12935E+01   -0.16557E+01  5872   0.730E+00    0.987E+00
DAV:   8    -0.478107755648E+03    0.23818E+00   -0.10906E+00  5448   0.207E+00    0.288E+00
DAV:   9    -0.478090283297E+03    0.17472E-01   -0.17171E-01  5488   0.926E-01    0.490E-01
DAV:  10    -0.478092503747E+03   -0.22205E-02   -0.17549E-02  5664   0.310E-01    0.287E-01
DAV:  11    -0.478093866525E+03   -0.13628E-02   -0.31865E-03  5272   0.140E-01    0.125E-01
DAV:  12    -0.478094075716E+03   -0.20919E-03   -0.52164E-04  5576   0.579E-02    0.479E-02
DAV:  13    -0.478094104035E+03   -0.28320E-04   -0.16863E-04  5240   0.292E-02    0.121E-02
DAV:  14    -0.478094105476E+03   -0.14403E-05   -0.80333E-06  5864   0.759E-03    0.639E-03
DAV:  15    -0.478094107626E+03   -0.21506E-05   -0.48675E-06  5320   0.477E-03    0.310E-03
DAV:  16    -0.478094108394E+03   -0.76727E-06   -0.36422E-07  5496   0.155E-03    0.125E-03
DAV:  17    -0.478094108752E+03   -0.35833E-06   -0.13010E-07  5408   0.818E-04    0.785E-04
DAV:  18    -0.478094108753E+03   -0.13933E-08   -0.66014E-09  2816   0.232E-04
   1 F= -.47809411E+03 E0= -.47809812E+03  d E =0.120408E-01
