<?xml version="1.0" encoding="ISO-8859-1"?>
<modeling>
 <generator>
  <i name="program" type="string">vasp </i>
  <i name="version" type="string">6.2.1  </i>
  <i name="subversion" type="string">16May21 (build Jun 06 2020 10:27:25) complex                          parallel </i>
  <i name="platform" type="string">LinuxIFC </i>
  <i name="date" type="string">2024 01 25 </i>
  <i name="time" type="string">17:15:28 </i>
 </generator>
 <incar>
  <i type="int" name="NELM">    60</i>
  <i type="int" name="IBRION">     1</i>
  <i name="EDIFF">      0.00000001</i>
  <i type="int" name="NSW">     0</i>
  <i type="int" name="ISIF">     3</i>
  <i type="int" name="ISYM">     0</i>
  <i type="logical" name="LWAVE"> F  </i>
  <i type="logical" name="LCHARG"> F  </i>
  <i type="string" name="GGA">PE</i>
 </incar>
 <primitive_cell>
  <structure name="primitive_cell" >
   <crystal>
    <varray name="basis" >
     <v>       8.74331558       0.00000000       0.00000000 </v>
     <v>       0.00000000       8.74331558       0.00000000 </v>
     <v>       0.00000000       0.00000000       8.74331558 </v>
    </varray>
    <i name="volume">    668.38771987 </i>
    <varray name="rec_basis" >
     <v>       0.11437309       0.00000000       0.00000000 </v>
     <v>       0.00000000       0.11437309       0.00000000 </v>
     <v>       0.00000000       0.00000000       0.11437309 </v>
    </varray>
   </crystal>
   <varray name="positions" >
    <v>       0.12387902       0.13550156       0.11967342 </v>
    <v>       0.12666376       0.36691273       0.37264074 </v>
    <v>       0.37552516       0.11732838       0.38149004 </v>
    <v>       0.37147848       0.37036567       0.12759167 </v>
    <v>       0.12988863       0.12918855       0.61767226 </v>
    <v>       0.13573534       0.37243317       0.87811164 </v>
    <v>       0.37277286       0.11892806       0.87467850 </v>
    <v>       0.37083707       0.36776456       0.61439340 </v>
    <v>       0.11450028       0.62466626       0.12680906 </v>
    <v>       0.12638783       0.87733923       0.37243938 </v>
    <v>       0.37981037       0.61957672       0.38169533 </v>
    <v>       0.37480425       0.88210238       0.11727635 </v>
    <v>       0.12253517       0.62822842       0.62761950 </v>
    <v>       0.12832339       0.87697458       0.88218240 </v>
    <v>       0.36249939       0.62759879       0.86879717 </v>
    <v>       0.37443775       0.87659131       0.62245407 </v>
    <v>       0.61788974       0.12618849       0.11930776 </v>
    <v>       0.62264256       0.37882660       0.37390453 </v>
    <v>       0.86886285       0.12890499       0.37778430 </v>
    <v>       0.87217993       0.37462197       0.12789135 </v>
    <v>       0.62634567       0.12680145       0.62476123 </v>
    <v>       0.63062868       0.38548511       0.87330989 </v>
    <v>       0.87577750       0.12161765       0.88023782 </v>
    <v>       0.87528211       0.37090722       0.62624096 </v>
    <v>       0.61906624       0.61909223       0.12206815 </v>
    <v>       0.63269270       0.86854477       0.38267474 </v>
    <v>       0.87848992       0.62329031       0.37876116 </v>
    <v>       0.87031296       0.88692814       0.12837259 </v>
    <v>       0.63035956       0.62817133       0.62085218 </v>
    <v>       0.62029582       0.87449114       0.87397328 </v>
    <v>       0.88176136       0.62593169       0.87471966 </v>
    <v>       0.87729708       0.87115136       0.62512784 </v>
    <v>       0.00091933       0.99844809       0.00065054 </v>
    <v>       0.99416508       0.25034808       0.25198136 </v>
    <v>       0.24542285       0.99495721       0.25737941 </v>
    <v>       0.25181824       0.24961297       0.00229552 </v>
    <v>       0.00267746       0.99830151       0.50007637 </v>
    <v>       0.99600057       0.24696866       0.74355782 </v>
    <v>       0.24843572       0.00118728       0.75155130 </v>
    <v>       0.24489731       0.25211570       0.50492770 </v>
    <v>       0.00117700       0.49865355       0.00579532 </v>
    <v>       0.99405271       0.75161073       0.25114902 </v>
    <v>       0.24967540       0.50436507       0.24661647 </v>
    <v>       0.24412093       0.74666333       0.00403117 </v>
    <v>       0.00488359       0.49898417       0.49995807 </v>
    <v>       0.99484484       0.75128105       0.74953494 </v>
    <v>       0.25477037       0.49144154       0.74561675 </v>
    <v>       0.25169299       0.75086974       0.49926593 </v>
    <v>       0.49962006       0.99793983       0.00460869 </v>
    <v>       0.50229158       0.25223743       0.24675253 </v>
    <v>       0.75680600       0.99664462       0.25413320 </v>
    <v>       0.75522303       0.24333122       0.00139208 </v>
    <v>       0.49975119       0.98843430       0.49335745 </v>
    <v>       0.49698038       0.24119803       0.74348736 </v>
    <v>       0.74968702       0.99121177       0.74611289 </v>
    <v>       0.74886996       0.25324799       0.49934640 </v>
    <v>       0.50837211       0.50700816       0.00056353 </v>
    <v>       0.50392604       0.75182582       0.24582185 </v>
    <v>       0.74079442       0.49795170       0.25320501 </v>
    <v>       0.75114423       0.74562453       0.99596443 </v>
    <v>       0.49959968       0.49673854       0.50300322 </v>
    <v>       0.50232639       0.74861046       0.75172614 </v>
    <v>       0.74454231       0.49818038       0.75297829 </v>
    <v>       0.75130391       0.75149133       0.50352669 </v>
   </varray>
  </structure>
  <varray name="primitive_index" >
   <v type="int" >        1 </v>
   <v type="int" >        2 </v>
   <v type="int" >        3 </v>
   <v type="int" >        4 </v>
   <v type="int" >        5 </v>
   <v type="int" >        6 </v>
   <v type="int" >        7 </v>
   <v type="int" >        8 </v>
   <v type="int" >        9 </v>
   <v type="int" >       10 </v>
   <v type="int" >       11 </v>
   <v type="int" >       12 </v>
   <v type="int" >       13 </v>
   <v type="int" >       14 </v>
   <v type="int" >       15 </v>
   <v type="int" >       16 </v>
   <v type="int" >       17 </v>
   <v type="int" >       18 </v>
   <v type="int" >       19 </v>
   <v type="int" >       20 </v>
   <v type="int" >       21 </v>
   <v type="int" >       22 </v>
   <v type="int" >       23 </v>
   <v type="int" >       24 </v>
   <v type="int" >       25 </v>
   <v type="int" >       26 </v>
   <v type="int" >       27 </v>
   <v type="int" >       28 </v>
   <v type="int" >       29 </v>
   <v type="int" >       30 </v>
   <v type="int" >       31 </v>
   <v type="int" >       32 </v>
   <v type="int" >       33 </v>
   <v type="int" >       34 </v>
   <v type="int" >       35 </v>
   <v type="int" >       36 </v>
   <v type="int" >       37 </v>
   <v type="int" >       38 </v>
   <v type="int" >       39 </v>
   <v type="int" >       40 </v>
   <v type="int" >       41 </v>
   <v type="int" >       42 </v>
   <v type="int" >       43 </v>
   <v type="int" >       44 </v>
   <v type="int" >       45 </v>
   <v type="int" >       46 </v>
   <v type="int" >       47 </v>
   <v type="int" >       48 </v>
   <v type="int" >       49 </v>
   <v type="int" >       50 </v>
   <v type="int" >       51 </v>
   <v type="int" >       52 </v>
   <v type="int" >       53 </v>
   <v type="int" >       54 </v>
   <v type="int" >       55 </v>
   <v type="int" >       56 </v>
   <v type="int" >       57 </v>
   <v type="int" >       58 </v>
   <v type="int" >       59 </v>
   <v type="int" >       60 </v>
   <v type="int" >       61 </v>
   <v type="int" >       62 </v>
   <v type="int" >       63 </v>
   <v type="int" >       64 </v>
  </varray>
 </primitive_cell>
 <kpoints>
  <generation param="Monkhorst-Pack">
   <v type="int" name="divisions">       3        3        3 </v>
   <v name="usershift">      0.00000000       0.00000000       0.00000000 </v>
   <v name="genvec1">      0.33333333       0.00000000       0.00000000 </v>
   <v name="genvec2">      0.00000000       0.33333333       0.00000000 </v>
   <v name="genvec3">      0.00000000       0.00000000       0.33333333 </v>
   <v name="shift">      0.00000000       0.00000000       0.00000000 </v>
  </generation>
  <varray name="kpointlist" >
   <v>       0.00000000       0.00000000       0.00000000 </v>
   <v>       0.33333333       0.00000000       0.00000000 </v>
   <v>       0.00000000       0.33333333       0.00000000 </v>
   <v>       0.00000000       0.00000000       0.33333333 </v>
   <v>       0.33333333       0.33333333       0.00000000 </v>
   <v>       0.00000000       0.33333333       0.33333333 </v>
   <v>       0.33333333       0.00000000       0.33333333 </v>
   <v>      -0.33333333       0.33333333       0.00000000 </v>
   <v>      -0.33333333       0.00000000       0.33333333 </v>
   <v>       0.00000000      -0.33333333       0.33333333 </v>
   <v>       0.33333333       0.33333333       0.33333333 </v>
   <v>      -0.33333333       0.33333333       0.33333333 </v>
   <v>      -0.33333333      -0.33333333       0.33333333 </v>
   <v>       0.33333333      -0.33333333       0.33333333 </v>
  </varray>
  <varray name="weights" >
   <v>       0.03703704 </v>
   <v>       0.07407407 </v>
   <v>       0.07407407 </v>
   <v>       0.07407407 </v>
   <v>       0.07407407 </v>
   <v>       0.07407407 </v>
   <v>       0.07407407 </v>
   <v>       0.07407407 </v>
   <v>       0.07407407 </v>
   <v>       0.07407407 </v>
   <v>       0.07407407 </v>
   <v>       0.07407407 </v>
   <v>       0.07407407 </v>
   <v>       0.07407407 </v>
  </varray>
 </kpoints>
 <parameters>
  <separator name="general" >
   <i type="string" name="SYSTEM">unknown system</i>
   <i type="logical" name="LCOMPAT"> F  </i>
  </separator>
  <separator name="electronic" >
   <i type="string" name="PREC">normal</i>
   <i name="ENMAX">    400.00000000</i>
   <i name="ENAUG">    644.87300000</i>
   <i name="EDIFF">      0.00000001</i>
   <i type="int" name="IALGO">    38</i>
   <i type="int" name="IWAVPR">    10</i>
   <i type="int" name="NBANDS">   168</i>
   <i type="int" name="NBANDSLOW">    -1</i>
   <i type="int" name="NBANDSHIGH">    -1</i>
   <i name="NELECT">    256.00000000</i>
   <i type="int" name="TURBO">     0</i>
   <i type="int" name="IRESTART">     0</i>
   <i type="int" name="NREBOOT">     0</i>
   <i type="int" name="NMIN">     0</i>
   <i name="EREF">      0.00000000</i>
   <separator name="electronic smearing" >
    <i type="int" name="ISMEAR">     1</i>
    <i name="SIGMA">      0.20000000</i>
    <i name="KSPACING">      0.50000000</i>
    <i type="logical" name="KGAMMA"> T  </i>
    <i type="logical" name="KBLOWUP"> T  </i>
   </separator>
   <separator name="electronic projectors" >
    <i type="logical" name="LREAL"> F  </i>
    <v name="ROPT">      0.00000000      0.00000000</v>
    <i type="int" name="LMAXPAW">  -100</i>
    <i type="int" name="LMAXMIX">     2</i>
    <i type="logical" name="NLSPLINE"> F  </i>
   </separator>
   <separator name="electronic startup" >
    <i type="int" name="ISTART">     0</i>
    <i type="int" name="ICHARG">     2</i>
    <i type="int" name="INIWAV">     1</i>
   </separator>
   <separator name="electronic spin" >
    <i type="int" name="ISPIN">     1</i>
    <i type="logical" name="LNONCOLLINEAR"> F  </i>
    <v name="MAGMOM">      1.00000000      1.00000000      1.00000000      1.00000000      1.00000000      1.00000000      1.00000000      1.00000000      1.00000000      1.00000000      1.00000000      1.00000000      1.00000000      1.00000000      1.00000000      1.00000000      1.00000000      1.00000000      1.00000000      1.00000000
      1.00000000      1.00000000      1.00000000      1.00000000      1.00000000      1.00000000      1.00000000      1.00000000      1.00000000      1.00000000      1.00000000      1.00000000      1.00000000      1.00000000      1.00000000      1.00000000      1.00000000      1.00000000      1.00000000      1.00000000
      1.00000000      1.00000000      1.00000000      1.00000000      1.00000000      1.00000000      1.00000000      1.00000000      1.00000000      1.00000000      1.00000000      1.00000000      1.00000000      1.00000000      1.00000000      1.00000000      1.00000000      1.00000000      1.00000000      1.00000000
      1.00000000      1.00000000      1.00000000      1.00000000</v>
    <i name="NUPDOWN">     -1.00000000</i>
    <i type="logical" name="LSORBIT"> F  </i>
    <v name="SAXIS">      0.00000000      0.00000000      1.00000000</v>
    <i type="logical" name="LSPIRAL"> F  </i>
    <v name="QSPIRAL">      0.00000000      0.00000000      0.00000000</v>
    <i type="logical" name="LZEROZ"> F  </i>
   </separator>
   <separator name="electronic exchange-correlation" >
    <i type="logical" name="LASPH"> F  </i>
    <i type="logical" name="LMETAGGA"> F  </i>
   </separator>
   <separator name="electronic convergence" >
    <i type="int" name="NELM">    60</i>
    <i type="int" name="NELMDL">    -5</i>
    <i type="int" name="NELMIN">     2</i>
    <i name="ENINI">    400.00000000</i>
    <separator name="electronic convergence detail" >
     <i type="logical" name="LDIAG"> T  </i>
     <i type="logical" name="LSUBROT"> F  </i>
     <i name="WEIMIN">      0.00000000</i>
     <i name="EBREAK">      0.00000000</i>
     <i name="DEPER">      0.30000000</i>
     <i type="int" name="NRMM">     4</i>
     <i name="TIME">      0.40000000</i>
    </separator>
   </separator>
   <separator name="electronic mixer" >
    <i name="AMIX">      0.40000000</i>
    <i name="BMIX">      1.00000000</i>
    <i name="AMIN">      0.10000000</i>
    <i name="AMIX_MAG">      1.60000000</i>
    <i name="BMIX_MAG">      1.00000000</i>
    <separator name="electronic mixer details" >
     <i type="int" name="IMIX">     4</i>
     <i type="logical" name="MIXFIRST"> F  </i>
     <i type="int" name="MAXMIX">   -45</i>
     <i name="WC">    100.00000000</i>
     <i type="int" name="INIMIX">     1</i>
     <i type="int" name="MIXPRE">     1</i>
     <i type="int" name="MREMOVE">     5</i>
    </separator>
   </separator>
   <separator name="electronic dipolcorrection" >
    <i type="logical" name="LDIPOL"> F  </i>
    <i type="logical" name="LMONO"> F  </i>
    <i type="int" name="IDIPOL">     0</i>
    <i name="EPSILON">      1.00000000</i>
    <v name="DIPOL">   -100.00000000   -100.00000000   -100.00000000</v>
    <i name="EFIELD">      0.00000000</i>
   </separator>
  </separator>
  <separator name="grids" >
   <i type="int" name="NGX">    48</i>
   <i type="int" name="NGY">    48</i>
   <i type="int" name="NGZ">    48</i>
   <i type="int" name="NGXF">    96</i>
   <i type="int" name="NGYF">    96</i>
   <i type="int" name="NGZF">    96</i>
   <i type="logical" name="ADDGRID"> F  </i>
  </separator>
  <separator name="ionic" >
   <i type="int" name="NSW">     0</i>
   <i type="int" name="IBRION">    -1</i>
   <i type="int" name="MDALGO">     0</i>
   <i type="int" name="ISIF">     3</i>
   <i name="PSTRESS">      0.00000000</i>
   <i name="EDIFFG">      0.00000010</i>
   <i type="int" name="NFREE">     0</i>
   <i name="POTIM">      0.50000000</i>
   <i name="SMASS">     -3.00000000</i>
   <i name="SCALEE">      1.00000000</i>
  </separator>
  <separator name="ionic md" >
   <i name="TEBEG">      0.00010000</i>
   <i name="TEEND">      0.00010000</i>
   <i type="int" name="NBLOCK">     1</i>
   <i type="int" name="KBLOCK">     1</i>
   <i type="int" name="NPACO">   256</i>
   <i name="APACO">     16.00000000</i>
  </separator>
  <separator name="symmetry" >
   <i type="int" name="ISYM">     0</i>
   <i name="SYMPREC">      0.00001000</i>
  </separator>
  <separator name="dos" >
   <i type="int" name="LORBIT">     0</i>
   <v name="RWIGS">     -1.00000000     -1.00000000</v>
   <i type="int" name="NEDOS">   301</i>
   <i name="EMIN">     10.00000000</i>
   <i name="EMAX">    -10.00000000</i>
   <i name="EFERMI">      0.00000000</i>
  </separator>
  <separator name="writing" >
   <i type="int" name="NWRITE">     2</i>
   <i type="logical" name="LWAVE"> F  </i>
   <i type="logical" name="LDOWNSAMPLE"> F  </i>
   <i type="logical" name="LCHARG"> F  </i>
   <i type="logical" name="LPARD"> F  </i>
   <i type="logical" name="LVTOT"> F  </i>
   <i type="logical" name="LVHAR"> F  </i>
   <i type="logical" name="LELF"> F  </i>
   <i type="logical" name="LOPTICS"> F  </i>
   <v name="STM">      0.00000000      0.00000000      0.00000000      0.00000000      0.00000000      0.00000000      0.00000000</v>
  </separator>
  <separator name="performance" >
   <i type="int" name="NPAR">     8</i>
   <i type="int" name="NSIM">     4</i>
   <i type="int" name="NBLK">    -1</i>
   <i type="logical" name="LPLANE"> T  </i>
   <i type="logical" name="LSCALAPACK"> T  </i>
   <i type="logical" name="LSCAAWARE"> F  </i>
   <i type="logical" name="LSCALU"> F  </i>
   <i type="logical" name="LASYNC"> F  </i>
   <i type="logical" name="LORBITALREAL"> F  </i>
  </separator>
  <separator name="miscellaneous" >
   <i type="int" name="IDIOT">     3</i>
   <i type="int" name="PHON_NSTRUCT">    -1</i>
   <i type="logical" name="LMUSIC"> F  </i>
   <v name="POMASS">     12.01100000     28.08500000</v>
   <v name="DARWINR">      0.00000000      0.00000000</v>
   <v name="DARWINV">      1.00000000      1.00000000</v>
   <i type="logical" name="LCORR"> T  </i>
  </separator>
  <i type="logical" name="GGA_COMPAT"> T  </i>
  <i type="logical" name="LBERRY"> F  </i>
  <i type="int" name="ICORELEVEL">     0</i>
  <i type="logical" name="LDAU"> F  </i>
  <i type="int" name="I_CONSTRAINED_M">     0</i>
  <separator name="electronic exchange-correlation" >
   <i type="string" name="GGA">PE</i>
   <i type="int" name="VOSKOWN">     0</i>
   <i type="logical" name="LHFCALC"> F  </i>
   <i type="string" name="PRECFOCK"></i>
   <i type="logical" name="LSYMGRAD"> F  </i>
   <i type="logical" name="LHFONE"> F  </i>
   <i type="logical" name="LRHFCALC"> F  </i>
   <i type="logical" name="LTHOMAS"> F  </i>
   <i type="logical" name="LMODELHF"> F  </i>
   <i type="logical" name="LFOCKACE"> F  </i>
   <i name="ENCUT4O">     -1.00000000</i>
   <i type="int" name="EXXOEP">     0</i>
   <i type="int" name="FOURORBIT">     0</i>
   <i name="AEXX">      0.00000000</i>
   <i name="HFALPHA">      0.00000000</i>
   <i name="MCALPHA">      0.00000000</i>
   <i name="ALDAX">      1.00000000</i>
   <i name="AGGAX">      1.00000000</i>
   <i name="ALDAC">      1.00000000</i>
   <i name="AGGAC">      1.00000000</i>
   <i type="int" name="NKREDX">     1</i>
   <i type="int" name="NKREDY">     1</i>
   <i type="int" name="NKREDZ">     1</i>
   <i type="logical" name="SHIFTRED"> F  </i>
   <i type="logical" name="ODDONLY"> F  </i>
   <i type="logical" name="EVENONLY"> F  </i>
   <i type="int" name="LMAXFOCK">     0</i>
   <i type="int" name="NMAXFOCKAE">     0</i>
   <i type="logical" name="LFOCKAEDFT"> F  </i>
   <i name="HFSCREEN">      0.00000000</i>
   <i name="HFSCREENC">      0.00000000</i>
   <i type="int" name="NBANDSGWLOW">     0</i>
  </separator>
  <separator name="vdW DFT" >
   <i type="logical" name="LUSE_VDW"> F  </i>
   <i name="Zab_VDW">     -0.84910000</i>
   <i name="PARAM1">      0.12340000</i>
   <i name="PARAM2">      1.00000000</i>
   <i name="PARAM3">      0.00000000</i>
  </separator>
  <separator name="model GW" >
   <i type="int" name="MODEL_GW">     0</i>
   <i name="MODEL_EPS0">      6.26613487</i>
   <i name="MODEL_ALPHA">      1.00000000</i>
  </separator>
  <separator name="linear response parameters" >
   <i type="logical" name="LEPSILON"> F  </i>
   <i type="logical" name="LRPA"> F  </i>
   <i type="logical" name="LNABLA"> F  </i>
   <i type="logical" name="LVEL"> F  </i>
   <i type="int" name="KINTER">     0</i>
   <i name="CSHIFT">      0.10000000</i>
   <i name="OMEGAMAX">     -1.00000000</i>
   <i name="DEG_THRESHOLD">      0.00200000</i>
   <i name="RTIME">     -0.10000000</i>
   <i name="WPLASMAI">      0.00000000</i>
   <v name="DFIELD">      0.00000000      0.00000000      0.00000000</v>
   <v name="WPLASMA">      0.00000000      0.00000000      0.00000000      0.00000000      0.00000000      0.00000000      0.00000000      0.00000000      0.00000000</v>
  </separator>
  <separator name="orbital magnetization" >
   <i type="logical" name="NUCIND"> F  </i>
   <v name="MAGPOS">      0.00000000      0.00000000      0.00000000</v>
   <i type="logical" name="LNICSALL"> T  </i>
   <i type="logical" name="ORBITALMAG"> F  </i>
   <i type="logical" name="LMAGBLOCH"> F  </i>
   <i type="logical" name="LCHIMAG"> F  </i>
   <i type="logical" name="LGAUGE"> T  </i>
   <i type="int" name="MAGATOM">     0</i>
   <v name="MAGDIPOL">      0.00000000      0.00000000      0.00000000</v>
   <v name="AVECCONST">      0.00000000      0.00000000      0.00000000</v>
  </separator>
  <separator name="response functions" >
   <i type="logical" name="LFINITE_TEMPERATURE"> F  </i>
   <i type="logical" name="LADDER"> F  </i>
   <i type="logical" name="LRPAFORCE"> F  </i>
   <i type="logical" name="LFXC"> F  </i>
   <i type="logical" name="LHARTREE"> T  </i>
   <i type="int" name="IBSE">     0</i>
   <v type="int" name="KPOINT">    -1     0     0     0</v>
   <i type="logical" name="LTCTC"> F  </i>
   <i type="logical" name="LTCTE"> F  </i>
   <i type="logical" name="LTETE"> F  </i>
   <i type="logical" name="LTRIPLET"> F  </i>
   <i type="logical" name="LFXCEPS"> F  </i>
   <i type="logical" name="LFXHEG"> F  </i>
   <i type="int" name="NATURALO">     2</i>
   <i type="logical" name="LHOLEGF"> F  </i>
   <i type="logical" name="L2ORDER"> F  </i>
   <i type="logical" name="LDMP1"> F  </i>
   <i type="logical" name="LMP2LT"> F  </i>
   <i type="logical" name="LSMP2LT"> F  </i>
   <i type="logical" name="LGWLF"> F  </i>
   <i name="ENCUTGW">     -2.00000000</i>
   <i name="ENCUTGWSOFT">     -2.00000000</i>
   <i name="ENCUTLF">     -1.00000000</i>
   <i type="logical" name="LESF_SPLINES"> F  </i>
   <i type="int" name="LMAXMP2">    -1</i>
   <i name="SCISSOR">      0.00000000</i>
   <i type="int" name="NOMEGA">     0</i>
   <i type="int" name="NOMEGAR">     0</i>
   <i type="int" name="NBANDSGW">    -1</i>
   <i type="int" name="NBANDSO">    -1</i>
   <i type="int" name="NBANDSV">    -1</i>
   <i type="int" name="NELM">    60</i>
   <i type="int" name="NELMHF">     1</i>
   <i type="int" name="DIM">     3</i>
   <i type="int" name="IESPILON">     4</i>
   <i type="int" name="ANTIRES">     0</i>
   <i name="OMEGAMAX">    -30.00000000</i>
   <i name="OMEGAMIN">    -30.00000000</i>
   <i name="OMEGATL">   -200.00000000</i>
   <i type="int" name="OMEGAGRID">     0</i>
   <i name="CSHIFT">     -0.10000000</i>
   <i type="logical" name="LSELFENERGY"> F  </i>
   <i type="logical" name="LSPECTRAL"> F  </i>
   <i type="logical" name="LSPECTRALGW"> F  </i>
   <i type="logical" name="LSINGLES"> F  </i>
   <i type="logical" name="LFERMIGW"> F  </i>
   <i type="logical" name="ODDONLYGW"> F  </i>
   <i type="logical" name="EVENONLYGW"> F  </i>
   <i type="int" name="NKREDLFX">     1</i>
   <i type="int" name="NKREDLFY">     1</i>
   <i type="int" name="NKREDLFZ">     1</i>
   <i type="int" name="MAXMEM">  2800</i>
   <i type="int" name="TELESCOPE">     0</i>
   <i type="int" name="NTAUPAR">    -1</i>
   <i type="int" name="NOMEGAPAR">    -1</i>
   <i name="DAMP_NEWTON">      0.80000001</i>
   <i name="LAMBDA">      1.00000000</i>
  </separator>
  <separator name="External order field" >
   <i name="OFIELD_KAPPA">      0.00000000</i>
   <v name="OFIELD_K">      0.00000000      0.00000000      0.00000000</v>
   <i name="OFIELD_Q6_NEAR">      0.00000000</i>
   <i name="OFIELD_Q6_FAR">      0.00000000</i>
   <i name="OFIELD_A">      0.00000000</i>
  </separator>
 </parameters>
 <atominfo>
  <atoms>      64 </atoms>
  <types>       2 </types>
  <array name="atoms" >
   <dimension dim="1">ion</dimension>
   <field type="string">element</field>
   <field type="int">atomtype</field>
   <set>
    <rc><c>C </c><c>   1</c></rc>
    <rc><c>C </c><c>   1</c></rc>
    <rc><c>C </c><c>   1</c></rc>
    <rc><c>C </c><c>   1</c></rc>
    <rc><c>C </c><c>   1</c></rc>
    <rc><c>C </c><c>   1</c></rc>
    <rc><c>C </c><c>   1</c></rc>
    <rc><c>C </c><c>   1</c></rc>
    <rc><c>C </c><c>   1</c></rc>
    <rc><c>C </c><c>   1</c></rc>
    <rc><c>C </c><c>   1</c></rc>
    <rc><c>C </c><c>   1</c></rc>
    <rc><c>C </c><c>   1</c></rc>
    <rc><c>C </c><c>   1</c></rc>
    <rc><c>C </c><c>   1</c></rc>
    <rc><c>C </c><c>   1</c></rc>
    <rc><c>C </c><c>   1</c></rc>
    <rc><c>C </c><c>   1</c></rc>
    <rc><c>C </c><c>   1</c></rc>
    <rc><c>C </c><c>   1</c></rc>
    <rc><c>C </c><c>   1</c></rc>
    <rc><c>C </c><c>   1</c></rc>
    <rc><c>C </c><c>   1</c></rc>
    <rc><c>C </c><c>   1</c></rc>
    <rc><c>C </c><c>   1</c></rc>
    <rc><c>C </c><c>   1</c></rc>
    <rc><c>C </c><c>   1</c></rc>
    <rc><c>C </c><c>   1</c></rc>
    <rc><c>C </c><c>   1</c></rc>
    <rc><c>C </c><c>   1</c></rc>
    <rc><c>C </c><c>   1</c></rc>
    <rc><c>C </c><c>   1</c></rc>
    <rc><c>Si</c><c>   2</c></rc>
    <rc><c>Si</c><c>   2</c></rc>
    <rc><c>Si</c><c>   2</c></rc>
    <rc><c>Si</c><c>   2</c></rc>
    <rc><c>Si</c><c>   2</c></rc>
    <rc><c>Si</c><c>   2</c></rc>
    <rc><c>Si</c><c>   2</c></rc>
    <rc><c>Si</c><c>   2</c></rc>
    <rc><c>Si</c><c>   2</c></rc>
    <rc><c>Si</c><c>   2</c></rc>
    <rc><c>Si</c><c>   2</c></rc>
    <rc><c>Si</c><c>   2</c></rc>
    <rc><c>Si</c><c>   2</c></rc>
    <rc><c>Si</c><c>   2</c></rc>
    <rc><c>Si</c><c>   2</c></rc>
    <rc><c>Si</c><c>   2</c></rc>
    <rc><c>Si</c><c>   2</c></rc>
    <rc><c>Si</c><c>   2</c></rc>
    <rc><c>Si</c><c>   2</c></rc>
    <rc><c>Si</c><c>   2</c></rc>
    <rc><c>Si</c><c>   2</c></rc>
    <rc><c>Si</c><c>   2</c></rc>
    <rc><c>Si</c><c>   2</c></rc>
    <rc><c>Si</c><c>   2</c></rc>
    <rc><c>Si</c><c>   2</c></rc>
    <rc><c>Si</c><c>   2</c></rc>
    <rc><c>Si</c><c>   2</c></rc>
    <rc><c>Si</c><c>   2</c></rc>
    <rc><c>Si</c><c>   2</c></rc>
    <rc><c>Si</c><c>   2</c></rc>
    <rc><c>Si</c><c>   2</c></rc>
    <rc><c>Si</c><c>   2</c></rc>
   </set>
  </array>
  <array name="atomtypes" >
   <dimension dim="1">type</dimension>
   <field type="int">atomspertype</field>
   <field type="string">element</field>
   <field>mass</field>
   <field>valence</field>
   <field type="string">pseudopotential</field>
   <set>
    <rc><c>  32</c><c>C </c><c>     12.01100000</c><c>      4.00000000</c><c>  PAW_PBE C 08Apr2002                   </c></rc>
    <rc><c>  32</c><c>Si</c><c>     28.08500000</c><c>      4.00000000</c><c>  PAW_PBE Si 05Jan2001                  </c></rc>
   </set>
  </array>
 </atominfo>
 <structure name="initialpos" >
  <crystal>
   <varray name="basis" >
    <v>       8.74331558       0.00000000       0.00000000 </v>
    <v>       0.00000000       8.74331558       0.00000000 </v>
    <v>       0.00000000       0.00000000       8.74331558 </v>
   </varray>
   <i name="volume">    668.38771987 </i>
   <varray name="rec_basis" >
    <v>       0.11437309       0.00000000       0.00000000 </v>
    <v>       0.00000000       0.11437309       0.00000000 </v>
    <v>       0.00000000       0.00000000       0.11437309 </v>
   </varray>
  </crystal>
  <varray name="positions" >
   <v>       0.12387902       0.13550156       0.11967342 </v>
   <v>       0.12666376       0.36691273       0.37264074 </v>
   <v>       0.37552516       0.11732838       0.38149004 </v>
   <v>       0.37147848       0.37036567       0.12759167 </v>
   <v>       0.12988863       0.12918855       0.61767226 </v>
   <v>       0.13573534       0.37243317       0.87811164 </v>
   <v>       0.37277286       0.11892806       0.87467850 </v>
   <v>       0.37083707       0.36776456       0.61439340 </v>
   <v>       0.11450028       0.62466626       0.12680906 </v>
   <v>       0.12638783       0.87733923       0.37243938 </v>
   <v>       0.37981037       0.61957672       0.38169533 </v>
   <v>       0.37480425       0.88210238       0.11727635 </v>
   <v>       0.12253517       0.62822842       0.62761950 </v>
   <v>       0.12832339       0.87697458       0.88218240 </v>
   <v>       0.36249939       0.62759879       0.86879717 </v>
   <v>       0.37443775       0.87659131       0.62245407 </v>
   <v>       0.61788974       0.12618849       0.11930776 </v>
   <v>       0.62264256       0.37882660       0.37390453 </v>
   <v>       0.86886285       0.12890499       0.37778430 </v>
   <v>       0.87217993       0.37462197       0.12789135 </v>
   <v>       0.62634567       0.12680145       0.62476123 </v>
   <v>       0.63062868       0.38548511       0.87330989 </v>
   <v>       0.87577750       0.12161765       0.88023782 </v>
   <v>       0.87528211       0.37090722       0.62624096 </v>
   <v>       0.61906624       0.61909223       0.12206815 </v>
   <v>       0.63269270       0.86854477       0.38267474 </v>
   <v>       0.87848992       0.62329031       0.37876116 </v>
   <v>       0.87031296       0.88692814       0.12837259 </v>
   <v>       0.63035956       0.62817133       0.62085218 </v>
   <v>       0.62029582       0.87449114       0.87397328 </v>
   <v>       0.88176136       0.62593169       0.87471966 </v>
   <v>       0.87729708       0.87115136       0.62512784 </v>
   <v>       0.00091933       0.99844809       0.00065054 </v>
   <v>       0.99416508       0.25034808       0.25198136 </v>
   <v>       0.24542285       0.99495721       0.25737941 </v>
   <v>       0.25181824       0.24961297       0.00229552 </v>
   <v>       0.00267746       0.99830151       0.50007637 </v>
   <v>       0.99600057       0.24696866       0.74355782 </v>
   <v>       0.24843572       0.00118728       0.75155130 </v>
   <v>       0.24489731       0.25211570       0.50492770 </v>
   <v>       0.00117700       0.49865355       0.00579532 </v>
   <v>       0.99405271       0.75161073       0.25114902 </v>
   <v>       0.24967540       0.50436507       0.24661647 </v>
   <v>       0.24412093       0.74666333       0.00403117 </v>
   <v>       0.00488359       0.49898417       0.49995807 </v>
   <v>       0.99484484       0.75128105       0.74953494 </v>
   <v>       0.25477037       0.49144154       0.74561675 </v>
   <v>       0.25169299       0.75086974       0.49926593 </v>
   <v>       0.49962006       0.99793983       0.00460869 </v>
   <v>       0.50229158       0.25223743       0.24675253 </v>
   <v>       0.75680600       0.99664462       0.25413320 </v>
   <v>       0.75522303       0.24333122       0.00139208 </v>
   <v>       0.49975119       0.98843430       0.49335745 </v>
   <v>       0.49698038       0.24119803       0.74348736 </v>
   <v>       0.74968702       0.99121177       0.74611289 </v>
   <v>       0.74886996       0.25324799       0.49934640 </v>
   <v>       0.50837211       0.50700816       0.00056353 </v>
   <v>       0.50392604       0.75182582       0.24582185 </v>
   <v>       0.74079442       0.49795170       0.25320501 </v>
   <v>       0.75114423       0.74562453       0.99596443 </v>
   <v>       0.49959968       0.49673854       0.50300322 </v>
   <v>       0.50232639       0.74861046       0.75172614 </v>
   <v>       0.74454231       0.49818038       0.75297829 </v>
   <v>       0.75130391       0.75149133       0.50352669 </v>
  </varray>
 </structure>
 <calculation>
  <scstep>
   <time name="dav">   26.25   26.36</time>
   <time name="total">   26.31   26.42</time>
   <energy>
    <i name="alphaZ">    354.85177120 </i>
    <i name="ewald">  -9070.30353758 </i>
    <i name="hartreedc">   -676.59922694 </i>
    <i name="XCdc">    145.94989726 </i>
    <i name="pawpsdc">   6292.66707184 </i>
    <i name="pawaedc">  -5747.90303932 </i>
    <i name="eentropy">      0.00494711 </i>
    <i name="bandstr">   1367.46162717 </i>
    <i name="atom">   8006.17504320 </i>
    <i name="e_fr_energy">    672.30455393 </i>
    <i name="e_wo_entrp">    672.29960682 </i>
    <i name="e_0_energy">    672.30290489 </i>
   </energy>
  </scstep>
  <scstep>
   <time name="dav">   16.57   16.62</time>
   <time name="total">   16.57   16.62</time>
   <energy>
    <i name="e_fr_energy">   -459.69181974 </i>
    <i name="e_wo_entrp">   -459.71208628 </i>
    <i name="e_0_energy">   -459.69857525 </i>
   </energy>
  </scstep>
  <scstep>
   <time name="dav">   15.89   15.93</time>
   <time name="total">   15.90   15.93</time>
   <energy>
    <i name="e_fr_energy">   -535.63034742 </i>
    <i name="e_wo_entrp">   -535.65708060 </i>
    <i name="e_0_energy">   -535.63925848 </i>
   </energy>
  </scstep>
  <scstep>
   <time name="dav">   20.87   21.07</time>
   <time name="total">   20.88   21.07</time>
   <energy>
    <i name="e_fr_energy">   -537.33847207 </i>
    <i name="e_wo_entrp">   -537.36547681 </i>
    <i name="e_0_energy">   -537.34747365 </i>
   </energy>
  </scstep>
  <scstep>
   <time name="dav">   16.98   17.07</time>
   <time name="total">   17.24   17.33</time>
   <energy>
    <i name="e_fr_energy">   -537.38389437 </i>
    <i name="e_wo_entrp">   -537.41091712 </i>
    <i name="e_0_energy">   -537.39290196 </i>
   </energy>
  </scstep>
  <scstep>
   <time name="dav">   17.45   17.48</time>
   <time name="total">   18.18   18.26</time>
   <energy>
    <i name="e_fr_energy">   -479.63939391 </i>
    <i name="e_wo_entrp">   -479.65302650 </i>
    <i name="e_0_energy">   -479.64393810 </i>
   </energy>
  </scstep>
  <scstep>
   <time name="dav">   17.21   17.25</time>
   <time name="total">   17.73   17.77</time>
   <energy>
    <i name="e_fr_energy">   -478.34593385 </i>
    <i name="e_wo_entrp">   -478.35786337 </i>
    <i name="e_0_energy">   -478.34991035 </i>
   </energy>
  </scstep>
  <scstep>
   <time name="dav">   23.46   23.58</time>
   <time name="total">   24.07   24.23</time>
   <energy>
    <i name="e_fr_energy">   -478.10775565 </i>
    <i name="e_wo_entrp">   -478.11989368 </i>
    <i name="e_0_energy">   -478.11180166 </i>
   </energy>
  </scstep>
  <scstep>
   <time name="dav">   15.88   15.98</time>
   <time name="total">   16.45   16.58</time>
   <energy>
    <i name="e_fr_energy">   -478.09028330 </i>
    <i name="e_wo_entrp">   -478.10230419 </i>
    <i name="e_0_energy">   -478.09429026 </i>
   </energy>
  </scstep>
  <scstep>
   <time name="dav">   21.76   21.85</time>
   <time name="total">   22.08   22.18</time>
   <energy>
    <i name="e_fr_energy">   -478.09250375 </i>
    <i name="e_wo_entrp">   -478.10456016 </i>
    <i name="e_0_energy">   -478.09652255 </i>
   </energy>
  </scstep>
  <scstep>
   <time name="dav">   16.36   16.45</time>
   <time name="total">   16.69   16.82</time>
   <energy>
    <i name="e_fr_energy">   -478.09386653 </i>
    <i name="e_wo_entrp">   -478.10591242 </i>
    <i name="e_0_energy">   -478.09788182 </i>
   </energy>
  </scstep>
  <scstep>
   <time name="dav">   16.31   16.40</time>
   <time name="total">   16.63   16.72</time>
   <energy>
    <i name="e_fr_energy">   -478.09407572 </i>
    <i name="e_wo_entrp">   -478.10611418 </i>
    <i name="e_0_energy">   -478.09808854 </i>
   </energy>
  </scstep>
  <scstep>
   <time name="dav">   15.80   15.88</time>
   <time name="total">   16.23   16.34</time>
   <energy>
    <i name="e_fr_energy">   -478.09410404 </i>
    <i name="e_wo_entrp">   -478.10614548 </i>
    <i name="e_0_energy">   -478.09811785 </i>
   </energy>
  </scstep>
  <scstep>
   <time name="dav">   17.36   17.45</time>
   <time name="total">   17.68   17.77</time>
   <energy>
    <i name="e_fr_energy">   -478.09410548 </i>
    <i name="e_wo_entrp">   -478.10614599 </i>
    <i name="e_0_energy">   -478.09811898 </i>
   </energy>
  </scstep>
  <scstep>
   <time name="dav">   16.07   16.10</time>
   <time name="total">   16.48   16.55</time>
   <energy>
    <i name="e_fr_energy">   -478.09410763 </i>
    <i name="e_wo_entrp">   -478.10614847 </i>
    <i name="e_0_energy">   -478.09812124 </i>
   </energy>
  </scstep>
  <scstep>
   <time name="dav">   16.54   16.58</time>
   <time name="total">   16.87   16.90</time>
   <energy>
    <i name="e_fr_energy">   -478.09410839 </i>
    <i name="e_wo_entrp">   -478.10614929 </i>
    <i name="e_0_energy">   -478.09812203 </i>
   </energy>
  </scstep>
  <scstep>
   <time name="dav">   15.96   15.99</time>
   <time name="total">   16.30   16.35</time>
   <energy>
    <i name="e_fr_energy">   -478.09410875 </i>
    <i name="e_wo_entrp">   -478.10614956 </i>
    <i name="e_0_energy">   -478.09812235 </i>
   </energy>
  </scstep>
  <scstep>
   <time name="dav">   10.10   10.12</time>
   <time name="total">   10.15   10.17</time>
   <energy>
    <i name="alphaZ">    354.85177120 </i>
    <i name="ewald">  -9070.30353758 </i>
    <i name="hartreedc">  -1031.01095704 </i>
    <i name="XCdc">    179.44376007 </i>
    <i name="pawpsdc">  33362.91105695 </i>
    <i name="pawaedc"> -32823.95524615 </i>
    <i name="eentropy">      0.01204076 </i>
    <i name="bandstr">    543.78195983 </i>
    <i name="atom">   8006.17504320 </i>
    <i name="e_fr_energy">   -478.09410875 </i>
    <i name="e_wo_entrp">   -478.10614951 </i>
    <i name="e_0_energy">   -478.09812234 </i>
   </energy>
  </scstep>
  <structure>
   <crystal>
    <varray name="basis" >
     <v>       8.74331558       0.00000000       0.00000000 </v>
     <v>       0.00000000       8.74331558       0.00000000 </v>
     <v>       0.00000000       0.00000000       8.74331558 </v>
    </varray>
    <i name="volume">    668.38771987 </i>
    <varray name="rec_basis" >
     <v>       0.11437309       0.00000000       0.00000000 </v>
     <v>       0.00000000       0.11437309       0.00000000 </v>
     <v>       0.00000000       0.00000000       0.11437309 </v>
    </varray>
   </crystal>
   <varray name="positions" >
    <v>       0.12387902       0.13550156       0.11967342 </v>
    <v>       0.12666376       0.36691273       0.37264074 </v>
    <v>       0.37552516       0.11732838       0.38149004 </v>
    <v>       0.37147848       0.37036567       0.12759167 </v>
    <v>       0.12988863       0.12918855       0.61767226 </v>
    <v>       0.13573534       0.37243317       0.87811164 </v>
    <v>       0.37277286       0.11892806       0.87467850 </v>
    <v>       0.37083707       0.36776456       0.61439340 </v>
    <v>       0.11450028       0.62466626       0.12680906 </v>
    <v>       0.12638783       0.87733923       0.37243938 </v>
    <v>       0.37981037       0.61957672       0.38169533 </v>
    <v>       0.37480425       0.88210238       0.11727635 </v>
    <v>       0.12253517       0.62822842       0.62761950 </v>
    <v>       0.12832339       0.87697458       0.88218240 </v>
    <v>       0.36249939       0.62759879       0.86879717 </v>
    <v>       0.37443775       0.87659131       0.62245407 </v>
    <v>       0.61788974       0.12618849       0.11930776 </v>
    <v>       0.62264256       0.37882660       0.37390453 </v>
    <v>       0.86886285       0.12890499       0.37778430 </v>
    <v>       0.87217993       0.37462197       0.12789135 </v>
    <v>       0.62634567       0.12680145       0.62476123 </v>
    <v>       0.63062868       0.38548511       0.87330989 </v>
    <v>       0.87577750       0.12161765       0.88023782 </v>
    <v>       0.87528211       0.37090722       0.62624096 </v>
    <v>       0.61906624       0.61909223       0.12206815 </v>
    <v>       0.63269270       0.86854477       0.38267474 </v>
    <v>       0.87848992       0.62329031       0.37876116 </v>
    <v>       0.87031296       0.88692814       0.12837259 </v>
    <v>       0.63035956       0.62817133       0.62085218 </v>
    <v>       0.62029582       0.87449114       0.87397328 </v>
    <v>       0.88176136       0.62593169       0.87471966 </v>
    <v>       0.87729708       0.87115136       0.62512784 </v>
    <v>       0.00091933       0.99844809       0.00065054 </v>
    <v>       0.99416508       0.25034808       0.25198136 </v>
    <v>       0.24542285       0.99495721       0.25737941 </v>
    <v>       0.25181824       0.24961297       0.00229552 </v>
    <v>       0.00267746       0.99830151       0.50007637 </v>
    <v>       0.99600057       0.24696866       0.74355782 </v>
    <v>       0.24843572       0.00118728       0.75155130 </v>
    <v>       0.24489731       0.25211570       0.50492770 </v>
    <v>       0.00117700       0.49865355       0.00579532 </v>
    <v>       0.99405271       0.75161073       0.25114902 </v>
    <v>       0.24967540       0.50436507       0.24661647 </v>
    <v>       0.24412093       0.74666333       0.00403117 </v>
    <v>       0.00488359       0.49898417       0.49995807 </v>
    <v>       0.99484484       0.75128105       0.74953494 </v>
    <v>       0.25477037       0.49144154       0.74561675 </v>
    <v>       0.25169299       0.75086974       0.49926593 </v>
    <v>       0.49962006       0.99793983       0.00460869 </v>
    <v>       0.50229158       0.25223743       0.24675253 </v>
    <v>       0.75680600       0.99664462       0.25413320 </v>
    <v>       0.75522303       0.24333122       0.00139208 </v>
    <v>       0.49975119       0.98843430       0.49335745 </v>
    <v>       0.49698038       0.24119803       0.74348736 </v>
    <v>       0.74968702       0.99121177       0.74611289 </v>
    <v>       0.74886996       0.25324799       0.49934640 </v>
    <v>       0.50837211       0.50700816       0.00056353 </v>
    <v>       0.50392604       0.75182582       0.24582185 </v>
    <v>       0.74079442       0.49795170       0.25320501 </v>
    <v>       0.75114423       0.74562453       0.99596443 </v>
    <v>       0.49959968       0.49673854       0.50300322 </v>
    <v>       0.50232639       0.74861046       0.75172614 </v>
    <v>       0.74454231       0.49818038       0.75297829 </v>
    <v>       0.75130391       0.75149133       0.50352669 </v>
   </varray>
  </structure>
  <varray name="forces" >
   <v>      -0.68196803      -2.23080748       1.74472942 </v>
   <v>      -0.37122574       1.68093570       0.22283488 </v>
   <v>      -0.05446624       1.02639121      -1.15948844 </v>
   <v>       1.11750685       1.65549878      -0.57105250 </v>
   <v>      -1.87631874      -1.70549493       1.96804311 </v>
   <v>      -2.03337314       0.27026679      -0.89195981 </v>
   <v>       0.71197083       0.96355022       0.22230985 </v>
   <v>       1.51165964       1.16744999       2.05627975 </v>
   <v>       1.48626581       0.73545498       0.58783265 </v>
   <v>      -1.22497030      -1.54381204       0.75995166 </v>
   <v>      -0.93809565       1.42097037      -1.67619585 </v>
   <v>      -0.85763237      -2.28614946       2.37949153 </v>
   <v>       0.64816132      -0.66971699      -0.58745259 </v>
   <v>      -1.24102101      -0.38569458      -1.31113891 </v>
   <v>       2.33204257      -0.56516369       0.99776795 </v>
   <v>       0.07629439      -0.66814310       0.67084281 </v>
   <v>       1.66505360      -0.28353290       1.29275658 </v>
   <v>      -0.09479552      -1.02388562       0.66743212 </v>
   <v>       1.06960606      -0.96512296      -0.12750588 </v>
   <v>      -0.33490243       0.18340354      -0.03389193 </v>
   <v>       0.16850946      -1.37928028      -0.71425830 </v>
   <v>      -1.69399831      -2.78589492       0.93329960 </v>
   <v>      -0.02006177      -0.48165523      -1.80780819 </v>
   <v>      -0.41639018       1.22823467      -0.39847022 </v>
   <v>       2.12729386       2.29776152       1.35615792 </v>
   <v>      -0.67955712       0.64883669      -2.21817304 </v>
   <v>      -1.15804482       0.20952970      -0.58044892 </v>
   <v>       1.09780032      -2.91264961      -1.09783468 </v>
   <v>      -1.15476066      -1.06890045       1.33797118 </v>
   <v>       1.02298036      -0.48798616       0.42487063 </v>
   <v>      -1.19079933      -0.64097145       0.39657277 </v>
   <v>      -0.07236068       0.92480222      -0.27217255 </v>
   <v>       0.46702968       1.14729733       0.34407315 </v>
   <v>       0.94420267      -0.09806356      -0.45246022 </v>
   <v>       1.37286964       2.51957523      -2.19771549 </v>
   <v>       0.43300612      -0.27864778      -0.61746970 </v>
   <v>      -0.35829399       0.81751035      -0.13185379 </v>
   <v>       1.11973577      -0.01149416       1.76746546 </v>
   <v>       0.25431363      -0.40193254      -0.44584129 </v>
   <v>       1.16663278      -1.18666381      -2.92755156 </v>
   <v>      -0.17937512      -0.88383995      -1.48326674 </v>
   <v>       0.12189328       0.11333649       0.15864992 </v>
   <v>       0.01036144      -1.29421498       1.00427221 </v>
   <v>       0.58140721       0.47625450      -0.79980882 </v>
   <v>      -0.32334441      -0.32363687       0.19288267 </v>
   <v>       2.01727386      -0.28555104       0.76645837 </v>
   <v>      -1.18951628       1.17745034       0.41653113 </v>
   <v>      -0.17888372      -0.50729601       0.52692037 </v>
   <v>      -0.02797129       0.84328753      -1.94815980 </v>
   <v>      -1.24699885      -0.97908076       0.97039800 </v>
   <v>      -2.45813063       1.65422142       0.37690026 </v>
   <v>      -1.12319845       1.30624286      -0.34884904 </v>
   <v>       0.14682413       1.92189764       1.41167637 </v>
   <v>       0.17384684       1.08070285       1.23362293 </v>
   <v>      -0.21739485       1.85706637       0.87357833 </v>
   <v>      -0.39761718      -0.21995111       0.45213566 </v>
   <v>      -3.39519190      -2.27221664      -1.68560395 </v>
   <v>      -0.74810760      -0.22597049       0.83710608 </v>
   <v>       1.90579578       0.69329260      -0.50858910 </v>
   <v>      -0.20340641       0.90323323       0.62219566 </v>
   <v>       0.39748625       0.31439486      -0.26001658 </v>
   <v>      -1.43734836       0.07139592      -0.73764005 </v>
   <v>       2.33162748       1.11158785      -1.50024202 </v>
   <v>       1.10006947      -1.36841222      -0.48109105 </v>
  </varray>
  <varray name="stress" >
   <v>      16.01941078       8.34304896      -6.88132949 </v>
   <v>       8.34304897      14.44684185      -1.66456351 </v>
   <v>      -6.88132946      -1.66456349      16.74575944 </v>
  </varray>
  <energy>
   <i name="e_fr_energy">   -478.09410875 </i>
   <i name="e_wo_entrp">   -478.10614951 </i>
   <i name="e_0_energy">   -478.09812234 </i>
  </energy>
  <time name="totalsc">  334.25  335.83</time>
  <eigenvalues>
   <array>
    <dimension dim="1">band</dimension>
    <dimension dim="2">kpoint</dimension>
    <dimension dim="3">spin</dimension>
    <field>eigene</field>
    <field>occ</field>
    <set>
     <set comment="spin 1">
      <set comment="kpoint 1">
       <r>   -7.3792    1.0000 </r>
       <r>   -5.9344    1.0000 </r>
       <r>   -5.9065    1.0000 </r>
       <r>   -5.8377    1.0000 </r>
       <r>   -5.7541    1.0000 </r>
       <r>   -5.7150    1.0000 </r>
       <r>   -5.6726    1.0000 </r>
       <r>   -4.6837    1.0000 </r>
       <r>   -4.6033    1.0000 </r>
       <r>   -4.5091    1.0000 </r>
       <r>   -4.4650    1.0000 </r>
       <r>   -4.4104    1.0000 </r>
       <r>   -4.3586    1.0000 </r>
       <r>   -4.3372    1.0000 </r>
       <r>   -4.2984    1.0000 </r>
       <r>   -4.2613    1.0000 </r>
       <r>   -4.2176    1.0000 </r>
       <r>   -4.1896    1.0000 </r>
       <r>   -4.1463    1.0000 </r>
       <r>   -3.8754    1.0000 </r>
       <r>   -3.8100    1.0000 </r>
       <r>   -3.7402    1.0000 </r>
       <r>   -3.6468    1.0000 </r>
       <r>   -2.5141    1.0000 </r>
       <r>   -2.4451    1.0000 </r>
       <r>   -2.3327    1.0000 </r>
       <r>   -2.2770    1.0000 </r>
       <r>   -2.1651    1.0000 </r>
       <r>   -2.1214    1.0000 </r>
       <r>   -2.0407    1.0000 </r>
       <r>   -2.0010    1.0000 </r>
       <r>   -1.9562    1.0000 </r>
       <r>   -0.6331    1.0000 </r>
       <r>   -0.5169    1.0000 </r>
       <r>   -0.4736    1.0000 </r>
       <r>   -0.4104    1.0000 </r>
       <r>    0.1779    1.0000 </r>
       <r>    0.2241    1.0000 </r>
       <r>    0.2523    1.0000 </r>
       <r>    0.8748    1.0000 </r>
       <r>    0.8954    1.0000 </r>
       <r>    0.9216    1.0000 </r>
       <r>    0.9888    1.0000 </r>
       <r>    1.0198    1.0000 </r>
       <r>    1.0466    1.0000 </r>
       <r>    1.8216    1.0000 </r>
       <r>    1.8839    1.0000 </r>
       <r>    1.9152    1.0000 </r>
       <r>    1.9511    1.0000 </r>
       <r>    2.0160    1.0000 </r>
       <r>    2.0337    1.0000 </r>
       <r>    2.0671    1.0000 </r>
       <r>    2.1421    1.0000 </r>
       <r>    2.1508    1.0000 </r>
       <r>    2.1842    1.0000 </r>
       <r>    2.2344    1.0000 </r>
       <r>    2.2750    1.0000 </r>
       <r>    2.9155    1.0000 </r>
       <r>    2.9431    1.0000 </r>
       <r>    2.9897    1.0000 </r>
       <r>    3.0154    1.0000 </r>
       <r>    3.0844    1.0000 </r>
       <r>    3.1056    1.0000 </r>
       <r>    3.2312    1.0000 </r>
       <r>    3.2670    1.0000 </r>
       <r>    3.3070    1.0000 </r>
       <r>    3.3210    1.0000 </r>
       <r>    3.3762    1.0000 </r>
       <r>    3.3891    1.0000 </r>
       <r>    3.5297    1.0000 </r>
       <r>    3.5816    1.0000 </r>
       <r>    3.5917    1.0000 </r>
       <r>    3.6261    1.0000 </r>
       <r>    3.6553    1.0000 </r>
       <r>    3.6868    1.0000 </r>
       <r>    3.7238    1.0000 </r>
       <r>    3.7617    1.0000 </r>
       <r>    3.7756    1.0000 </r>
       <r>    3.7788    1.0000 </r>
       <r>    3.8450    1.0000 </r>
       <r>    3.8649    1.0000 </r>
       <r>    4.5101    1.0000 </r>
       <r>    4.5912    1.0000 </r>
       <r>    4.6078    1.0000 </r>
       <r>    4.6483    1.0000 </r>
       <r>    4.7006    1.0000 </r>
       <r>    4.7480    1.0000 </r>
       <r>    4.7854    1.0000 </r>
       <r>    4.8271    1.0000 </r>
       <r>    4.8476    1.0000 </r>
       <r>    4.8674    1.0000 </r>
       <r>    4.9027    1.0000 </r>
       <r>    4.9725    1.0000 </r>
       <r>    5.8037    1.0000 </r>
       <r>    5.8734    1.0000 </r>
       <r>    5.9329    1.0000 </r>
       <r>    5.9949    1.0000 </r>
       <r>    6.0162    1.0000 </r>
       <r>    6.0493    1.0000 </r>
       <r>    6.0763    1.0000 </r>
       <r>    6.0820    1.0000 </r>
       <r>    6.1600    1.0000 </r>
       <r>    6.1917    1.0000 </r>
       <r>    6.2198    1.0000 </r>
       <r>    6.2663    1.0000 </r>
       <r>    6.5013    1.0000 </r>
       <r>    6.6238    1.0000 </r>
       <r>    6.6491    1.0000 </r>
       <r>    6.7099    1.0000 </r>
       <r>    6.7355    1.0000 </r>
       <r>    6.7697    1.0000 </r>
       <r>    6.7935    1.0000 </r>
       <r>    6.8245    1.0000 </r>
       <r>    6.8502    1.0000 </r>
       <r>    6.8649    1.0000 </r>
       <r>    6.9179    1.0000 </r>
       <r>    6.9436    1.0000 </r>
       <r>    6.9917    1.0000 </r>
       <r>    7.0080    1.0000 </r>
       <r>    7.0563    1.0000 </r>
       <r>    7.0869    1.0000 </r>
       <r>    7.1434    1.0000 </r>
       <r>    7.2341    1.0000 </r>
       <r>    7.2412    1.0000 </r>
       <r>    7.2647    1.0000 </r>
       <r>    8.0038    1.0320 </r>
       <r>    8.0850    0.9536 </r>
       <r>    8.1480    0.7888 </r>
       <r>    9.2285   -0.0000 </r>
       <r>    9.3729   -0.0000 </r>
       <r>    9.4332   -0.0000 </r>
       <r>   11.8018   -0.0000 </r>
       <r>   11.9014   -0.0000 </r>
       <r>   11.9196   -0.0000 </r>
       <r>   11.9561   -0.0000 </r>
       <r>   12.0009   -0.0000 </r>
       <r>   12.0594   -0.0000 </r>
       <r>   12.1472   -0.0000 </r>
       <r>   12.2399   -0.0000 </r>
       <r>   12.3013   -0.0000 </r>
       <r>   12.8864   -0.0000 </r>
       <r>   12.9413   -0.0000 </r>
       <r>   13.0072   -0.0000 </r>
       <r>   13.0332   -0.0000 </r>
       <r>   13.0787   -0.0000 </r>
       <r>   13.1632   -0.0000 </r>
       <r>   13.1904   -0.0000 </r>
       <r>   13.2409   -0.0000 </r>
       <r>   13.2628   -0.0000 </r>
       <r>   13.2917   -0.0000 </r>
       <r>   13.3081   -0.0000 </r>
       <r>   13.3476   -0.0000 </r>
       <r>   13.3718   -0.0000 </r>
       <r>   13.3940   -0.0000 </r>
       <r>   13.4461   -0.0000 </r>
       <r>   13.5069   -0.0000 </r>
       <r>   13.5433   -0.0000 </r>
       <r>   13.5834   -0.0000 </r>
       <r>   13.5930   -0.0000 </r>
       <r>   13.6444   -0.0000 </r>
       <r>   13.7001    0.0000 </r>
       <r>   13.7455    0.0000 </r>
       <r>   13.9535    0.0000 </r>
       <r>   14.0917    0.0000 </r>
       <r>   14.1119    0.0000 </r>
       <r>   14.2632    0.0000 </r>
       <r>   14.3113    0.0000 </r>
       <r>   14.3988    0.0000 </r>
      </set>
      <set comment="kpoint 2">
       <r>   -7.2054    1.0000 </r>
       <r>   -6.6632    1.0000 </r>
       <r>   -5.7466    1.0000 </r>
       <r>   -5.7145    1.0000 </r>
       <r>   -5.5916    1.0000 </r>
       <r>   -5.5602    1.0000 </r>
       <r>   -5.2645    1.0000 </r>
       <r>   -5.1834    1.0000 </r>
       <r>   -5.0789    1.0000 </r>
       <r>   -5.0063    1.0000 </r>
       <r>   -4.6404    1.0000 </r>
       <r>   -4.3685    1.0000 </r>
       <r>   -4.3107    1.0000 </r>
       <r>   -4.2896    1.0000 </r>
       <r>   -4.1427    1.0000 </r>
       <r>   -4.0706    1.0000 </r>
       <r>   -4.0164    1.0000 </r>
       <r>   -3.9682    1.0000 </r>
       <r>   -3.7898    1.0000 </r>
       <r>   -3.5018    1.0000 </r>
       <r>   -3.4586    1.0000 </r>
       <r>   -3.3460    1.0000 </r>
       <r>   -3.3188    1.0000 </r>
       <r>   -3.1745    1.0000 </r>
       <r>   -2.6469    1.0000 </r>
       <r>   -2.6104    1.0000 </r>
       <r>   -2.4746    1.0000 </r>
       <r>   -2.3995    1.0000 </r>
       <r>   -2.3389    1.0000 </r>
       <r>   -2.3041    1.0000 </r>
       <r>   -2.1049    1.0000 </r>
       <r>   -2.0659    1.0000 </r>
       <r>   -0.1846    1.0000 </r>
       <r>   -0.0884    1.0000 </r>
       <r>   -0.0223    1.0000 </r>
       <r>    0.0547    1.0000 </r>
       <r>    0.3178    1.0000 </r>
       <r>    0.3758    1.0000 </r>
       <r>    0.6678    1.0000 </r>
       <r>    0.6873    1.0000 </r>
       <r>    0.9044    1.0000 </r>
       <r>    0.9448    1.0000 </r>
       <r>    0.9774    1.0000 </r>
       <r>    0.9930    1.0000 </r>
       <r>    1.0715    1.0000 </r>
       <r>    1.0996    1.0000 </r>
       <r>    1.1338    1.0000 </r>
       <r>    1.2412    1.0000 </r>
       <r>    1.3079    1.0000 </r>
       <r>    1.3279    1.0000 </r>
       <r>    1.4126    1.0000 </r>
       <r>    1.4659    1.0000 </r>
       <r>    1.5245    1.0000 </r>
       <r>    2.5925    1.0000 </r>
       <r>    2.6454    1.0000 </r>
       <r>    2.6870    1.0000 </r>
       <r>    2.7055    1.0000 </r>
       <r>    2.8141    1.0000 </r>
       <r>    2.8730    1.0000 </r>
       <r>    2.8902    1.0000 </r>
       <r>    2.9344    1.0000 </r>
       <r>    3.0038    1.0000 </r>
       <r>    3.0184    1.0000 </r>
       <r>    3.0538    1.0000 </r>
       <r>    3.0927    1.0000 </r>
       <r>    3.1597    1.0000 </r>
       <r>    3.4800    1.0000 </r>
       <r>    3.5124    1.0000 </r>
       <r>    3.6220    1.0000 </r>
       <r>    3.6657    1.0000 </r>
       <r>    3.9145    1.0000 </r>
       <r>    3.9955    1.0000 </r>
       <r>    4.0283    1.0000 </r>
       <r>    4.0789    1.0000 </r>
       <r>    4.2532    1.0000 </r>
       <r>    4.2990    1.0000 </r>
       <r>    4.3282    1.0000 </r>
       <r>    4.3443    1.0000 </r>
       <r>    4.3857    1.0000 </r>
       <r>    4.4334    1.0000 </r>
       <r>    4.4491    1.0000 </r>
       <r>    4.4789    1.0000 </r>
       <r>    4.5860    1.0000 </r>
       <r>    4.6174    1.0000 </r>
       <r>    4.6649    1.0000 </r>
       <r>    4.7253    1.0000 </r>
       <r>    4.7825    1.0000 </r>
       <r>    4.8241    1.0000 </r>
       <r>    4.8847    1.0000 </r>
       <r>    4.9472    1.0000 </r>
       <r>    4.9965    1.0000 </r>
       <r>    5.0560    1.0000 </r>
       <r>    5.3765    1.0000 </r>
       <r>    5.4071    1.0000 </r>
       <r>    5.4777    1.0000 </r>
       <r>    5.5449    1.0000 </r>
       <r>    5.6491    1.0000 </r>
       <r>    5.6990    1.0000 </r>
       <r>    5.7628    1.0000 </r>
       <r>    5.8561    1.0000 </r>
       <r>    5.8906    1.0000 </r>
       <r>    5.9509    1.0000 </r>
       <r>    6.1496    1.0000 </r>
       <r>    6.1931    1.0000 </r>
       <r>    6.2607    1.0000 </r>
       <r>    6.3049    1.0000 </r>
       <r>    6.3634    1.0000 </r>
       <r>    6.4242    1.0000 </r>
       <r>    6.4830    1.0000 </r>
       <r>    6.5209    1.0000 </r>
       <r>    6.6075    1.0000 </r>
       <r>    6.6751    1.0000 </r>
       <r>    6.7341    1.0000 </r>
       <r>    6.7541    1.0000 </r>
       <r>    6.8075    1.0000 </r>
       <r>    6.8195    1.0000 </r>
       <r>    6.8689    1.0000 </r>
       <r>    6.9177    1.0000 </r>
       <r>    6.9746    1.0000 </r>
       <r>    7.0025    1.0000 </r>
       <r>    7.0560    1.0000 </r>
       <r>    7.0847    1.0000 </r>
       <r>    7.1271    1.0000 </r>
       <r>    7.1648    1.0000 </r>
       <r>    7.2470    1.0000 </r>
       <r>    7.5311    1.0000 </r>
       <r>    7.7557    1.0024 </r>
       <r>    7.8058    1.0062 </r>
       <r>    9.6273   -0.0000 </r>
       <r>   10.1648   -0.0000 </r>
       <r>   10.1945   -0.0000 </r>
       <r>   10.5827   -0.0000 </r>
       <r>   11.8471   -0.0000 </r>
       <r>   11.9253   -0.0000 </r>
       <r>   12.3738   -0.0000 </r>
       <r>   12.4837   -0.0000 </r>
       <r>   12.5312   -0.0000 </r>
       <r>   12.6069   -0.0000 </r>
       <r>   12.6482   -0.0000 </r>
       <r>   12.7637   -0.0000 </r>
       <r>   12.7814   -0.0000 </r>
       <r>   12.8771   -0.0000 </r>
       <r>   12.9068   -0.0000 </r>
       <r>   12.9407   -0.0000 </r>
       <r>   12.9840   -0.0000 </r>
       <r>   13.0195   -0.0000 </r>
       <r>   13.0501   -0.0000 </r>
       <r>   13.1158   -0.0000 </r>
       <r>   13.1607   -0.0000 </r>
       <r>   13.2776   -0.0000 </r>
       <r>   13.4447   -0.0000 </r>
       <r>   13.4992   -0.0000 </r>
       <r>   13.5309   -0.0000 </r>
       <r>   13.5706   -0.0000 </r>
       <r>   13.6267   -0.0000 </r>
       <r>   13.6483   -0.0000 </r>
       <r>   13.6953    0.0000 </r>
       <r>   13.7173    0.0000 </r>
       <r>   13.7396    0.0000 </r>
       <r>   13.9070    0.0000 </r>
       <r>   13.9355    0.0000 </r>
       <r>   14.0205    0.0000 </r>
       <r>   14.1151    0.0000 </r>
       <r>   14.3913    0.0000 </r>
       <r>   14.5971    0.0000 </r>
       <r>   14.6698    0.0000 </r>
       <r>   14.6954    0.0000 </r>
       <r>   14.7593    0.0000 </r>
      </set>
      <set comment="kpoint 3">
       <r>   -7.2064    1.0000 </r>
       <r>   -6.6627    1.0000 </r>
       <r>   -5.7308    1.0000 </r>
       <r>   -5.6896    1.0000 </r>
       <r>   -5.6258    1.0000 </r>
       <r>   -5.5814    1.0000 </r>
       <r>   -5.2427    1.0000 </r>
       <r>   -5.1466    1.0000 </r>
       <r>   -5.0912    1.0000 </r>
       <r>   -5.0456    1.0000 </r>
       <r>   -4.6160    1.0000 </r>
       <r>   -4.4109    1.0000 </r>
       <r>   -4.3270    1.0000 </r>
       <r>   -4.2815    1.0000 </r>
       <r>   -4.1156    1.0000 </r>
       <r>   -4.0575    1.0000 </r>
       <r>   -3.9966    1.0000 </r>
       <r>   -3.9266    1.0000 </r>
       <r>   -3.8671    1.0000 </r>
       <r>   -3.5010    1.0000 </r>
       <r>   -3.4238    1.0000 </r>
       <r>   -3.3880    1.0000 </r>
       <r>   -3.3130    1.0000 </r>
       <r>   -3.1868    1.0000 </r>
       <r>   -2.6272    1.0000 </r>
       <r>   -2.5560    1.0000 </r>
       <r>   -2.4943    1.0000 </r>
       <r>   -2.4688    1.0000 </r>
       <r>   -2.3487    1.0000 </r>
       <r>   -2.2424    1.0000 </r>
       <r>   -2.1361    1.0000 </r>
       <r>   -2.0394    1.0000 </r>
       <r>   -0.1836    1.0000 </r>
       <r>   -0.0859    1.0000 </r>
       <r>   -0.0295    1.0000 </r>
       <r>    0.0529    1.0000 </r>
       <r>    0.3247    1.0000 </r>
       <r>    0.3647    1.0000 </r>
       <r>    0.6566    1.0000 </r>
       <r>    0.6985    1.0000 </r>
       <r>    0.9006    1.0000 </r>
       <r>    0.9249    1.0000 </r>
       <r>    0.9601    1.0000 </r>
       <r>    0.9974    1.0000 </r>
       <r>    1.0610    1.0000 </r>
       <r>    1.1288    1.0000 </r>
       <r>    1.1765    1.0000 </r>
       <r>    1.2173    1.0000 </r>
       <r>    1.2330    1.0000 </r>
       <r>    1.3592    1.0000 </r>
       <r>    1.4182    1.0000 </r>
       <r>    1.4753    1.0000 </r>
       <r>    1.5701    1.0000 </r>
       <r>    2.5926    1.0000 </r>
       <r>    2.6249    1.0000 </r>
       <r>    2.6513    1.0000 </r>
       <r>    2.6807    1.0000 </r>
       <r>    2.7952    1.0000 </r>
       <r>    2.9067    1.0000 </r>
       <r>    2.9323    1.0000 </r>
       <r>    2.9651    1.0000 </r>
       <r>    2.9807    1.0000 </r>
       <r>    3.0203    1.0000 </r>
       <r>    3.0469    1.0000 </r>
       <r>    3.1104    1.0000 </r>
       <r>    3.1355    1.0000 </r>
       <r>    3.5010    1.0000 </r>
       <r>    3.5121    1.0000 </r>
       <r>    3.6185    1.0000 </r>
       <r>    3.6344    1.0000 </r>
       <r>    3.9251    1.0000 </r>
       <r>    3.9886    1.0000 </r>
       <r>    4.0332    1.0000 </r>
       <r>    4.0815    1.0000 </r>
       <r>    4.2844    1.0000 </r>
       <r>    4.3083    1.0000 </r>
       <r>    4.3284    1.0000 </r>
       <r>    4.3762    1.0000 </r>
       <r>    4.3903    1.0000 </r>
       <r>    4.4253    1.0000 </r>
       <r>    4.4524    1.0000 </r>
       <r>    4.4788    1.0000 </r>
       <r>    4.5525    1.0000 </r>
       <r>    4.6175    1.0000 </r>
       <r>    4.7004    1.0000 </r>
       <r>    4.7212    1.0000 </r>
       <r>    4.7518    1.0000 </r>
       <r>    4.8167    1.0000 </r>
       <r>    4.8743    1.0000 </r>
       <r>    4.9088    1.0000 </r>
       <r>    4.9574    1.0000 </r>
       <r>    5.0762    1.0000 </r>
       <r>    5.3573    1.0000 </r>
       <r>    5.4106    1.0000 </r>
       <r>    5.5153    1.0000 </r>
       <r>    5.5872    1.0000 </r>
       <r>    5.6204    1.0000 </r>
       <r>    5.6765    1.0000 </r>
       <r>    5.8367    1.0000 </r>
       <r>    5.8511    1.0000 </r>
       <r>    5.9066    1.0000 </r>
       <r>    5.9915    1.0000 </r>
       <r>    6.1371    1.0000 </r>
       <r>    6.1655    1.0000 </r>
       <r>    6.2318    1.0000 </r>
       <r>    6.3219    1.0000 </r>
       <r>    6.3734    1.0000 </r>
       <r>    6.4265    1.0000 </r>
       <r>    6.4593    1.0000 </r>
       <r>    6.5199    1.0000 </r>
       <r>    6.5575    1.0000 </r>
       <r>    6.6247    1.0000 </r>
       <r>    6.7466    1.0000 </r>
       <r>    6.7825    1.0000 </r>
       <r>    6.8107    1.0000 </r>
       <r>    6.8567    1.0000 </r>
       <r>    6.8847    1.0000 </r>
       <r>    6.9330    1.0000 </r>
       <r>    6.9457    1.0000 </r>
       <r>    6.9920    1.0000 </r>
       <r>    7.0368    1.0000 </r>
       <r>    7.0893    1.0000 </r>
       <r>    7.1344    1.0000 </r>
       <r>    7.1703    1.0000 </r>
       <r>    7.2536    1.0000 </r>
       <r>    7.5649    1.0000 </r>
       <r>    7.6935    1.0006 </r>
       <r>    7.8239    1.0083 </r>
       <r>    9.6453   -0.0000 </r>
       <r>   10.1205   -0.0000 </r>
       <r>   10.2210   -0.0000 </r>
       <r>   10.5968   -0.0000 </r>
       <r>   11.8719   -0.0000 </r>
       <r>   11.9558   -0.0000 </r>
       <r>   12.3495   -0.0000 </r>
       <r>   12.4401   -0.0000 </r>
       <r>   12.5068   -0.0000 </r>
       <r>   12.5684   -0.0000 </r>
       <r>   12.6296   -0.0000 </r>
       <r>   12.7558   -0.0000 </r>
       <r>   12.8170   -0.0000 </r>
       <r>   12.8650   -0.0000 </r>
       <r>   12.9211   -0.0000 </r>
       <r>   12.9504   -0.0000 </r>
       <r>   12.9731   -0.0000 </r>
       <r>   13.0397   -0.0000 </r>
       <r>   13.1073   -0.0000 </r>
       <r>   13.1481   -0.0000 </r>
       <r>   13.1749   -0.0000 </r>
       <r>   13.2858   -0.0000 </r>
       <r>   13.4424   -0.0000 </r>
       <r>   13.4800   -0.0000 </r>
       <r>   13.5078   -0.0000 </r>
       <r>   13.5405   -0.0000 </r>
       <r>   13.5993   -0.0000 </r>
       <r>   13.6142   -0.0000 </r>
       <r>   13.7144    0.0000 </r>
       <r>   13.7383    0.0000 </r>
       <r>   13.7943    0.0000 </r>
       <r>   13.8900    0.0000 </r>
       <r>   13.9072    0.0000 </r>
       <r>   14.0465    0.0000 </r>
       <r>   14.1006    0.0000 </r>
       <r>   14.4061    0.0000 </r>
       <r>   14.5671    0.0000 </r>
       <r>   14.6443    0.0000 </r>
       <r>   14.7389    0.0000 </r>
       <r>   14.7615    0.0000 </r>
      </set>
      <set comment="kpoint 4">
       <r>   -7.2037    1.0000 </r>
       <r>   -6.6656    1.0000 </r>
       <r>   -5.7710    1.0000 </r>
       <r>   -5.7321    1.0000 </r>
       <r>   -5.5811    1.0000 </r>
       <r>   -5.5352    1.0000 </r>
       <r>   -5.2367    1.0000 </r>
       <r>   -5.1769    1.0000 </r>
       <r>   -5.0700    1.0000 </r>
       <r>   -5.0062    1.0000 </r>
       <r>   -4.6808    1.0000 </r>
       <r>   -4.3934    1.0000 </r>
       <r>   -4.3219    1.0000 </r>
       <r>   -4.2840    1.0000 </r>
       <r>   -4.1297    1.0000 </r>
       <r>   -4.0378    1.0000 </r>
       <r>   -3.9955    1.0000 </r>
       <r>   -3.9295    1.0000 </r>
       <r>   -3.8650    1.0000 </r>
       <r>   -3.5182    1.0000 </r>
       <r>   -3.4093    1.0000 </r>
       <r>   -3.3856    1.0000 </r>
       <r>   -3.3039    1.0000 </r>
       <r>   -3.2124    1.0000 </r>
       <r>   -2.6613    1.0000 </r>
       <r>   -2.5282    1.0000 </r>
       <r>   -2.4942    1.0000 </r>
       <r>   -2.4514    1.0000 </r>
       <r>   -2.3142    1.0000 </r>
       <r>   -2.2160    1.0000 </r>
       <r>   -2.1589    1.0000 </r>
       <r>   -2.0839    1.0000 </r>
       <r>   -0.1962    1.0000 </r>
       <r>   -0.0587    1.0000 </r>
       <r>   -0.0203    1.0000 </r>
       <r>    0.0288    1.0000 </r>
       <r>    0.3404    1.0000 </r>
       <r>    0.3712    1.0000 </r>
       <r>    0.6143    1.0000 </r>
       <r>    0.7612    1.0000 </r>
       <r>    0.8616    1.0000 </r>
       <r>    0.9034    1.0000 </r>
       <r>    0.9785    1.0000 </r>
       <r>    1.0392    1.0000 </r>
       <r>    1.0872    1.0000 </r>
       <r>    1.1163    1.0000 </r>
       <r>    1.1600    1.0000 </r>
       <r>    1.2007    1.0000 </r>
       <r>    1.2536    1.0000 </r>
       <r>    1.3385    1.0000 </r>
       <r>    1.4219    1.0000 </r>
       <r>    1.4583    1.0000 </r>
       <r>    1.5526    1.0000 </r>
       <r>    2.5979    1.0000 </r>
       <r>    2.6190    1.0000 </r>
       <r>    2.6641    1.0000 </r>
       <r>    2.6982    1.0000 </r>
       <r>    2.7960    1.0000 </r>
       <r>    2.8392    1.0000 </r>
       <r>    2.9043    1.0000 </r>
       <r>    2.9731    1.0000 </r>
       <r>    3.0135    1.0000 </r>
       <r>    3.0291    1.0000 </r>
       <r>    3.0571    1.0000 </r>
       <r>    3.1224    1.0000 </r>
       <r>    3.1572    1.0000 </r>
       <r>    3.4889    1.0000 </r>
       <r>    3.5108    1.0000 </r>
       <r>    3.6150    1.0000 </r>
       <r>    3.6650    1.0000 </r>
       <r>    3.8772    1.0000 </r>
       <r>    4.0172    1.0000 </r>
       <r>    4.0518    1.0000 </r>
       <r>    4.0772    1.0000 </r>
       <r>    4.2715    1.0000 </r>
       <r>    4.3003    1.0000 </r>
       <r>    4.3134    1.0000 </r>
       <r>    4.3517    1.0000 </r>
       <r>    4.3976    1.0000 </r>
       <r>    4.4241    1.0000 </r>
       <r>    4.4502    1.0000 </r>
       <r>    4.5107    1.0000 </r>
       <r>    4.5920    1.0000 </r>
       <r>    4.6098    1.0000 </r>
       <r>    4.6686    1.0000 </r>
       <r>    4.7165    1.0000 </r>
       <r>    4.7574    1.0000 </r>
       <r>    4.8554    1.0000 </r>
       <r>    4.8808    1.0000 </r>
       <r>    4.9162    1.0000 </r>
       <r>    4.9877    1.0000 </r>
       <r>    5.0359    1.0000 </r>
       <r>    5.3553    1.0000 </r>
       <r>    5.4041    1.0000 </r>
       <r>    5.5293    1.0000 </r>
       <r>    5.5763    1.0000 </r>
       <r>    5.6106    1.0000 </r>
       <r>    5.6762    1.0000 </r>
       <r>    5.7790    1.0000 </r>
       <r>    5.8421    1.0000 </r>
       <r>    5.9120    1.0000 </r>
       <r>    5.9771    1.0000 </r>
       <r>    6.1358    1.0000 </r>
       <r>    6.1861    1.0000 </r>
       <r>    6.2612    1.0000 </r>
       <r>    6.2806    1.0000 </r>
       <r>    6.3320    1.0000 </r>
       <r>    6.4062    1.0000 </r>
       <r>    6.5078    1.0000 </r>
       <r>    6.5149    1.0000 </r>
       <r>    6.5676    1.0000 </r>
       <r>    6.6533    1.0000 </r>
       <r>    6.7067    1.0000 </r>
       <r>    6.7742    1.0000 </r>
       <r>    6.8218    1.0000 </r>
       <r>    6.8706    1.0000 </r>
       <r>    6.8844    1.0000 </r>
       <r>    6.8992    1.0000 </r>
       <r>    6.9853    1.0000 </r>
       <r>    7.0121    1.0000 </r>
       <r>    7.0665    1.0000 </r>
       <r>    7.0968    1.0000 </r>
       <r>    7.1229    1.0000 </r>
       <r>    7.1956    1.0000 </r>
       <r>    7.2322    1.0000 </r>
       <r>    7.5519    1.0000 </r>
       <r>    7.7587    1.0026 </r>
       <r>    7.7655    1.0029 </r>
       <r>    9.6445   -0.0000 </r>
       <r>   10.1041   -0.0000 </r>
       <r>   10.2372   -0.0000 </r>
       <r>   10.5951   -0.0000 </r>
       <r>   11.8356   -0.0000 </r>
       <r>   11.9324   -0.0000 </r>
       <r>   12.3918   -0.0000 </r>
       <r>   12.4719   -0.0000 </r>
       <r>   12.5007   -0.0000 </r>
       <r>   12.6029   -0.0000 </r>
       <r>   12.6383   -0.0000 </r>
       <r>   12.7937   -0.0000 </r>
       <r>   12.8473   -0.0000 </r>
       <r>   12.8686   -0.0000 </r>
       <r>   12.9292   -0.0000 </r>
       <r>   12.9593   -0.0000 </r>
       <r>   12.9865   -0.0000 </r>
       <r>   13.0102   -0.0000 </r>
       <r>   13.0501   -0.0000 </r>
       <r>   13.1132   -0.0000 </r>
       <r>   13.1746   -0.0000 </r>
       <r>   13.2094   -0.0000 </r>
       <r>   13.3874   -0.0000 </r>
       <r>   13.4806   -0.0000 </r>
       <r>   13.5343   -0.0000 </r>
       <r>   13.6086   -0.0000 </r>
       <r>   13.6417   -0.0000 </r>
       <r>   13.6705   -0.0000 </r>
       <r>   13.6897    0.0000 </r>
       <r>   13.7161    0.0000 </r>
       <r>   13.7518    0.0000 </r>
       <r>   13.8444    0.0000 </r>
       <r>   13.9354    0.0000 </r>
       <r>   14.0249    0.0000 </r>
       <r>   14.0911    0.0000 </r>
       <r>   14.3931    0.0000 </r>
       <r>   14.6013    0.0000 </r>
       <r>   14.6622    0.0000 </r>
       <r>   14.7195    0.0000 </r>
       <r>   14.8112    0.0000 </r>
      </set>
      <set comment="kpoint 5">
       <r>   -7.0338    1.0000 </r>
       <r>   -6.5641    1.0000 </r>
       <r>   -6.4137    1.0000 </r>
       <r>   -5.9787    1.0000 </r>
       <r>   -5.5570    1.0000 </r>
       <r>   -5.4207    1.0000 </r>
       <r>   -5.1779    1.0000 </r>
       <r>   -5.0014    1.0000 </r>
       <r>   -4.9703    1.0000 </r>
       <r>   -4.8733    1.0000 </r>
       <r>   -4.6929    1.0000 </r>
       <r>   -4.5305    1.0000 </r>
       <r>   -4.4494    1.0000 </r>
       <r>   -4.3805    1.0000 </r>
       <r>   -4.0771    1.0000 </r>
       <r>   -3.9819    1.0000 </r>
       <r>   -3.6808    1.0000 </r>
       <r>   -3.5521    1.0000 </r>
       <r>   -3.5235    1.0000 </r>
       <r>   -3.4038    1.0000 </r>
       <r>   -3.3415    1.0000 </r>
       <r>   -3.2836    1.0000 </r>
       <r>   -3.1392    1.0000 </r>
       <r>   -3.0891    1.0000 </r>
       <r>   -2.9344    1.0000 </r>
       <r>   -2.7883    1.0000 </r>
       <r>   -2.7570    1.0000 </r>
       <r>   -2.6745    1.0000 </r>
       <r>   -2.6315    1.0000 </r>
       <r>   -2.3981    1.0000 </r>
       <r>   -2.2395    1.0000 </r>
       <r>   -2.1363    1.0000 </r>
       <r>   -0.2457    1.0000 </r>
       <r>   -0.1466    1.0000 </r>
       <r>    0.3277    1.0000 </r>
       <r>    0.4050    1.0000 </r>
       <r>    0.4718    1.0000 </r>
       <r>    0.5314    1.0000 </r>
       <r>    0.5939    1.0000 </r>
       <r>    0.6289    1.0000 </r>
       <r>    0.6438    1.0000 </r>
       <r>    0.7168    1.0000 </r>
       <r>    0.7890    1.0000 </r>
       <r>    0.8714    1.0000 </r>
       <r>    0.9094    1.0000 </r>
       <r>    0.9843    1.0000 </r>
       <r>    1.1662    1.0000 </r>
       <r>    1.2194    1.0000 </r>
       <r>    1.2612    1.0000 </r>
       <r>    1.3468    1.0000 </r>
       <r>    1.8863    1.0000 </r>
       <r>    1.9937    1.0000 </r>
       <r>    2.0413    1.0000 </r>
       <r>    2.0722    1.0000 </r>
       <r>    2.1497    1.0000 </r>
       <r>    2.1668    1.0000 </r>
       <r>    2.3671    1.0000 </r>
       <r>    2.5320    1.0000 </r>
       <r>    2.6115    1.0000 </r>
       <r>    2.6573    1.0000 </r>
       <r>    2.7707    1.0000 </r>
       <r>    3.1133    1.0000 </r>
       <r>    3.1901    1.0000 </r>
       <r>    3.2320    1.0000 </r>
       <r>    3.3168    1.0000 </r>
       <r>    3.3931    1.0000 </r>
       <r>    3.4493    1.0000 </r>
       <r>    3.5654    1.0000 </r>
       <r>    3.8370    1.0000 </r>
       <r>    3.9203    1.0000 </r>
       <r>    3.9508    1.0000 </r>
       <r>    4.0168    1.0000 </r>
       <r>    4.0474    1.0000 </r>
       <r>    4.1025    1.0000 </r>
       <r>    4.1291    1.0000 </r>
       <r>    4.2811    1.0000 </r>
       <r>    4.3356    1.0000 </r>
       <r>    4.4569    1.0000 </r>
       <r>    4.4835    1.0000 </r>
       <r>    4.5784    1.0000 </r>
       <r>    4.7049    1.0000 </r>
       <r>    4.7673    1.0000 </r>
       <r>    4.8290    1.0000 </r>
       <r>    4.8606    1.0000 </r>
       <r>    4.9123    1.0000 </r>
       <r>    4.9681    1.0000 </r>
       <r>    4.9721    1.0000 </r>
       <r>    5.0903    1.0000 </r>
       <r>    5.2287    1.0000 </r>
       <r>    5.2803    1.0000 </r>
       <r>    5.3109    1.0000 </r>
       <r>    5.3710    1.0000 </r>
       <r>    5.4061    1.0000 </r>
       <r>    5.4590    1.0000 </r>
       <r>    5.4850    1.0000 </r>
       <r>    5.5372    1.0000 </r>
       <r>    5.5886    1.0000 </r>
       <r>    5.6136    1.0000 </r>
       <r>    5.6659    1.0000 </r>
       <r>    5.7082    1.0000 </r>
       <r>    5.7747    1.0000 </r>
       <r>    5.8444    1.0000 </r>
       <r>    5.9082    1.0000 </r>
       <r>    5.9598    1.0000 </r>
       <r>    6.0159    1.0000 </r>
       <r>    6.0993    1.0000 </r>
       <r>    6.1936    1.0000 </r>
       <r>    6.2169    1.0000 </r>
       <r>    6.2912    1.0000 </r>
       <r>    6.3524    1.0000 </r>
       <r>    6.3916    1.0000 </r>
       <r>    6.4519    1.0000 </r>
       <r>    6.4816    1.0000 </r>
       <r>    6.5700    1.0000 </r>
       <r>    6.6002    1.0000 </r>
       <r>    6.6329    1.0000 </r>
       <r>    6.7061    1.0000 </r>
       <r>    6.7597    1.0000 </r>
       <r>    6.8143    1.0000 </r>
       <r>    6.8605    1.0000 </r>
       <r>    6.9309    1.0000 </r>
       <r>    7.0335    1.0000 </r>
       <r>    7.0822    1.0000 </r>
       <r>    7.3387    1.0000 </r>
       <r>    7.5308    1.0000 </r>
       <r>    7.6110    1.0001 </r>
       <r>    7.6983    1.0007 </r>
       <r>    8.0375    1.0146 </r>
       <r>   10.3318   -0.0000 </r>
       <r>   10.4346   -0.0000 </r>
       <r>   10.5092   -0.0000 </r>
       <r>   11.2314   -0.0000 </r>
       <r>   11.2946   -0.0000 </r>
       <r>   11.5144   -0.0000 </r>
       <r>   11.6679   -0.0000 </r>
       <r>   11.8227   -0.0000 </r>
       <r>   12.1178   -0.0000 </r>
       <r>   12.1631   -0.0000 </r>
       <r>   12.7180   -0.0000 </r>
       <r>   12.7474   -0.0000 </r>
       <r>   12.7717   -0.0000 </r>
       <r>   12.8292   -0.0000 </r>
       <r>   12.8931   -0.0000 </r>
       <r>   12.9570   -0.0000 </r>
       <r>   13.0299   -0.0000 </r>
       <r>   13.1150   -0.0000 </r>
       <r>   13.1476   -0.0000 </r>
       <r>   13.1988   -0.0000 </r>
       <r>   13.2662   -0.0000 </r>
       <r>   13.3172   -0.0000 </r>
       <r>   13.4294   -0.0000 </r>
       <r>   13.4681   -0.0000 </r>
       <r>   13.5514   -0.0000 </r>
       <r>   13.5768   -0.0000 </r>
       <r>   13.6374   -0.0000 </r>
       <r>   13.6763   -0.0000 </r>
       <r>   13.7630    0.0000 </r>
       <r>   13.7966    0.0000 </r>
       <r>   13.8509    0.0000 </r>
       <r>   13.8854    0.0000 </r>
       <r>   13.9640    0.0000 </r>
       <r>   14.0574    0.0000 </r>
       <r>   14.1690    0.0000 </r>
       <r>   14.5325    0.0000 </r>
       <r>   14.6010    0.0000 </r>
       <r>   14.7064    0.0000 </r>
       <r>   14.8529    0.0000 </r>
       <r>   14.9452    0.0000 </r>
      </set>
      <set comment="kpoint 6">
       <r>   -7.0330    1.0000 </r>
       <r>   -6.5225    1.0000 </r>
       <r>   -6.4675    1.0000 </r>
       <r>   -5.9837    1.0000 </r>
       <r>   -5.5383    1.0000 </r>
       <r>   -5.4305    1.0000 </r>
       <r>   -5.1252    1.0000 </r>
       <r>   -5.0313    1.0000 </r>
       <r>   -4.9580    1.0000 </r>
       <r>   -4.9084    1.0000 </r>
       <r>   -4.5898    1.0000 </r>
       <r>   -4.5656    1.0000 </r>
       <r>   -4.4729    1.0000 </r>
       <r>   -4.4095    1.0000 </r>
       <r>   -4.1072    1.0000 </r>
       <r>   -4.0072    1.0000 </r>
       <r>   -3.6697    1.0000 </r>
       <r>   -3.5357    1.0000 </r>
       <r>   -3.4346    1.0000 </r>
       <r>   -3.4077    1.0000 </r>
       <r>   -3.3677    1.0000 </r>
       <r>   -3.3308    1.0000 </r>
       <r>   -3.1729    1.0000 </r>
       <r>   -3.0860    1.0000 </r>
       <r>   -2.8958    1.0000 </r>
       <r>   -2.8246    1.0000 </r>
       <r>   -2.7709    1.0000 </r>
       <r>   -2.6521    1.0000 </r>
       <r>   -2.5897    1.0000 </r>
       <r>   -2.3663    1.0000 </r>
       <r>   -2.2444    1.0000 </r>
       <r>   -2.1745    1.0000 </r>
       <r>   -0.2428    1.0000 </r>
       <r>   -0.1728    1.0000 </r>
       <r>    0.3643    1.0000 </r>
       <r>    0.4163    1.0000 </r>
       <r>    0.4847    1.0000 </r>
       <r>    0.5066    1.0000 </r>
       <r>    0.5487    1.0000 </r>
       <r>    0.6115    1.0000 </r>
       <r>    0.6932    1.0000 </r>
       <r>    0.7426    1.0000 </r>
       <r>    0.7929    1.0000 </r>
       <r>    0.8265    1.0000 </r>
       <r>    0.8911    1.0000 </r>
       <r>    1.0362    1.0000 </r>
       <r>    1.1395    1.0000 </r>
       <r>    1.2080    1.0000 </r>
       <r>    1.2779    1.0000 </r>
       <r>    1.3784    1.0000 </r>
       <r>    1.8813    1.0000 </r>
       <r>    1.9843    1.0000 </r>
       <r>    2.0413    1.0000 </r>
       <r>    2.0640    1.0000 </r>
       <r>    2.1236    1.0000 </r>
       <r>    2.1594    1.0000 </r>
       <r>    2.3894    1.0000 </r>
       <r>    2.5490    1.0000 </r>
       <r>    2.5951    1.0000 </r>
       <r>    2.6480    1.0000 </r>
       <r>    2.7464    1.0000 </r>
       <r>    3.1590    1.0000 </r>
       <r>    3.2205    1.0000 </r>
       <r>    3.2659    1.0000 </r>
       <r>    3.3250    1.0000 </r>
       <r>    3.3557    1.0000 </r>
       <r>    3.4682    1.0000 </r>
       <r>    3.5102    1.0000 </r>
       <r>    3.8304    1.0000 </r>
       <r>    3.9003    1.0000 </r>
       <r>    3.9436    1.0000 </r>
       <r>    4.0100    1.0000 </r>
       <r>    4.0433    1.0000 </r>
       <r>    4.0657    1.0000 </r>
       <r>    4.1470    1.0000 </r>
       <r>    4.2790    1.0000 </r>
       <r>    4.3420    1.0000 </r>
[...]
      </set>
     </set>
    </set>
   </array>
  </eigenvalues>
  <separator name="orbital magnetization" >
   <v name="MAGDIPOLOUT">      0.00000000      0.00000000      0.00000000</v>
  </separator>
  <dos>
   <i name="efermi">      8.22142966 </i>
   <total>
    <array>
     <dimension dim="1">gridpoints</dimension>
     <dimension dim="2">spin</dimension>
     <field>energy</field>
     <field>total</field>
     <field>integrated</field>
     <set>
      <set comment="spin 1">
       <r>    -9.3792     0.0000     0.0000 </r>
       <r>    -9.2901     0.0000     0.0000 </r>
       <r>    -9.2009     0.0000     0.0000 </r>
       <r>    -9.1118     0.0000     0.0000 </r>
       <r>    -9.0227    -0.0000    -0.0000 </r>
       <r>    -8.9335    -0.0000    -0.0000 </r>
       <r>    -8.8444    -0.0000    -0.0000 </r>
       <r>    -8.7553    -0.0000    -0.0000 </r>
       <r>    -8.6661    -0.0000    -0.0000 </r>
       <r>    -8.5770    -0.0000    -0.0000 </r>
       <r>    -8.4878    -0.0000    -0.0000 </r>
       <r>    -8.3987    -0.0000    -0.0000 </r>
       <r>    -8.3096    -0.0000    -0.0000 </r>
       <r>    -8.2204    -0.0000    -0.0000 </r>
       <r>    -8.1313    -0.0000    -0.0000 </r>
       <r>    -8.0422    -0.0000    -0.0000 </r>
       <r>    -7.9530    -0.0002    -0.0000 </r>
       <r>    -7.8639    -0.0013    -0.0001 </r>
       <r>    -7.7747    -0.0068    -0.0007 </r>
       <r>    -7.6856    -0.0226    -0.0027 </r>
       <r>    -7.5965    -0.0440    -0.0067 </r>
       <r>    -7.5073    -0.0289    -0.0092 </r>
       <r>    -7.4182     0.1297     0.0023 </r>
       <r>    -7.3291     0.6160     0.0572 </r>
       <r>    -7.2399     1.5676     0.1970 </r>
       <r>    -7.1508     2.8834     0.4540 </r>
       <r>    -7.0616     4.1542     0.8243 </r>
       <r>    -6.9725     4.6836     1.2418 </r>
       <r>    -6.8834     4.0974     1.6070 </r>
       <r>    -6.7942     2.9667     1.8714 </r>
       <r>    -6.7051     2.5400     2.0978 </r>
       <r>    -6.6160     4.0047     2.4548 </r>
       <r>    -6.5268     7.1878     3.0955 </r>
       <r>    -6.4377    10.0099     3.9878 </r>
       <r>    -6.3485    10.2338     4.9000 </r>
       <r>    -6.2594     7.5300     5.5712 </r>
       <r>    -6.1703     3.8461     5.9140 </r>
       <r>    -6.0811     2.1904     6.1093 </r>
       <r>    -5.9920     3.7993     6.4479 </r>
       <r>    -5.9029     7.0676     7.0779 </r>
       <r>    -5.8137    10.0826     7.9766 </r>
       <r>    -5.7246    11.8534     9.0332 </r>
       <r>    -5.6354    11.9895    10.1019 </r>
       <r>    -5.5463    11.0376    11.0858 </r>
       <r>    -5.4572     9.4879    11.9315 </r>
       <r>    -5.3680     7.6934    12.6173 </r>
       <r>    -5.2789     6.9609    13.2378 </r>
       <r>    -5.1898     8.6082    14.0051 </r>
       <r>    -5.1006    12.1905    15.0917 </r>
       <r>    -5.0115    14.8100    16.4118 </r>
       <r>    -4.9224    13.2640    17.5941 </r>
       <r>    -4.8332     8.2713    18.3314 </r>
       <r>    -4.7441     4.7027    18.7506 </r>
       <r>    -4.6549     6.0576    19.2906 </r>
       <r>    -4.5658    11.2407    20.2925 </r>
       <r>    -4.4767    17.0892    21.8158 </r>
       <r>    -4.3875    20.0938    23.6069 </r>
       <r>    -4.2984    18.0404    25.2150 </r>
       <r>    -4.2093    14.2385    26.4842 </r>
       <r>    -4.1201    14.7854    27.8021 </r>
       <r>    -4.0310    19.4101    29.5323 </r>
       <r>    -3.9418    21.7023    31.4668 </r>
       <r>    -3.8527    18.5409    33.1195 </r>
       <r>    -3.7636    13.8211    34.3514 </r>
       <r>    -3.6744    12.6573    35.4797 </r>
       <r>    -3.5853    15.3821    36.8508 </r>
       <r>    -3.4962    18.7585    38.5229 </r>
       <r>    -3.4070    20.3596    40.3377 </r>
       <r>    -3.3179    20.0221    42.1224 </r>
       <r>    -3.2287    19.1035    43.8252 </r>
       <r>    -3.1396    18.6480    45.4875 </r>
       <r>    -3.0505    18.2112    47.1108 </r>
       <r>    -2.9613    17.8117    48.6984 </r>
       <r>    -2.8722    18.7560    50.3703 </r>
       <r>    -2.7831    21.3041    52.2693 </r>
       <r>    -2.6939    23.3500    54.3506 </r>
       <r>    -2.6048    22.0648    56.3174 </r>
       <r>    -2.5156    17.4294    57.8710 </r>
       <r>    -2.4265    13.2200    59.0494 </r>
       <r>    -2.3374    12.3100    60.1467 </r>
       <r>    -2.2482    13.1955    61.3229 </r>
       <r>    -2.1591    12.8676    62.4699 </r>
       <r>    -2.0700    10.0593    63.3666 </r>
       <r>    -1.9808     5.6899    63.8738 </r>
       <r>    -1.8917     1.9136    64.0443 </r>
       <r>    -1.8025     0.0556    64.0493 </r>
       <r>    -1.7134    -0.3100    64.0216 </r>
       <r>    -1.6243    -0.1765    64.0059 </r>
       <r>    -1.5351    -0.0542    64.0011 </r>
       <r>    -1.4460    -0.0107    64.0001 </r>
       <r>    -1.3569    -0.0014    64.0000 </r>
       <r>    -1.2677    -0.0002    64.0000 </r>
       <r>    -1.1786    -0.0003    64.0000 </r>
       <r>    -1.0894    -0.0023    63.9998 </r>
       <r>    -1.0003    -0.0103    63.9989 </r>
       <r>    -0.9112    -0.0257    63.9966 </r>
       <r>    -0.8220    -0.0207    63.9947 </r>
       <r>    -0.7329     0.0719    64.0011 </r>
       <r>    -0.6438     0.2660    64.0248 </r>
       <r>    -0.5546     0.4300    64.0632 </r>
       <r>    -0.4655     0.5986    64.1165 </r>
       <r>    -0.3763     1.6428    64.2630 </r>
       <r>    -0.2872     4.6421    64.6767 </r>
       <r>    -0.1981     8.4464    65.4296 </r>
       <r>    -0.1089    10.0259    66.3233 </r>
       <r>    -0.0198     8.7359    67.1020 </r>
       <r>     0.0693     7.2142    67.7451 </r>
       <r>     0.1585     8.0632    68.4638 </r>
       <r>     0.2476    12.2320    69.5541 </r>
       <r>     0.3367    18.3998    71.1942 </r>
       <r>     0.4259    22.7172    73.2192 </r>
       <r>     0.5150    23.0984    75.2781 </r>
       <r>     0.6042    22.6334    77.2956 </r>
       <r>     0.6933    24.8605    79.5116 </r>
       <r>     0.7824    28.9860    82.0953 </r>
       <r>     0.8716    31.5621    84.9087 </r>
       <r>     0.9607    30.5315    87.6302 </r>
       <r>     1.0498    27.9812    90.1243 </r>
       <r>     1.1390    27.9471    92.6155 </r>
       <r>     1.2281    30.5077    95.3348 </r>
       <r>     1.3173    31.1517    98.1116 </r>
       <r>     1.4064    26.2694   100.4532 </r>
       <r>     1.4955    16.8894   101.9587 </r>
       <r>     1.5847     7.3354   102.6125 </r>
       <r>     1.6738     1.6025   102.7554 </r>
       <r>     1.7629     1.3905   102.8793 </r>
       <r>     1.8521     5.9475   103.4095 </r>
       <r>     1.9412    12.6529   104.5373 </r>
       <r>     2.0304    18.5713   106.1927 </r>
       <r>     2.1195    21.1490   108.0779 </r>
       <r>     2.2086    18.8105   109.7546 </r>
       <r>     2.2978    13.1428   110.9261 </r>
       <r>     2.3869     8.4266   111.6772 </r>
       <r>     2.4760     8.2602   112.4135 </r>
       <r>     2.5652    12.8476   113.5587 </r>
       <r>     2.6543    17.5428   115.1224 </r>
       <r>     2.7435    17.2260   116.6579 </r>
       <r>     2.8326    13.6471   117.8744 </r>
       <r>     2.9217    13.0839   119.0406 </r>
       <r>     3.0109    17.7096   120.6192 </r>
       <r>     3.1000    24.1710   122.7738 </r>
       <r>     3.1891    28.8674   125.3469 </r>
       <r>     3.2783    30.4833   128.0641 </r>
       <r>     3.3674    29.3399   130.6794 </r>
       <r>     3.4566    27.3998   133.1218 </r>
       <r>     3.5457    25.7420   135.4163 </r>
       <r>     3.6348    22.6163   137.4323 </r>
       <r>     3.7240    18.0186   139.0384 </r>
       <r>     3.8131    15.7198   140.4396 </r>
       <r>     3.9022    17.9692   142.0414 </r>
       <r>     3.9914    21.8236   143.9867 </r>
       <r>     4.0805    22.4024   145.9835 </r>
       <r>     4.1697    20.1397   147.7787 </r>
       <r>     4.2588    21.3127   149.6785 </r>
       <r>     4.3479    27.6449   152.1427 </r>
       <r>     4.4371    33.3068   155.1116 </r>
       <r>     4.5262    34.3388   158.1724 </r>
       <r>     4.6153    32.3495   161.0560 </r>
       <r>     4.7045    31.0801   163.8264 </r>
       <r>     4.7936    33.0087   166.7687 </r>
       <r>     4.8828    36.4244   170.0155 </r>
       <r>     4.9719    37.0766   173.3204 </r>
       <r>     5.0610    33.8899   176.3412 </r>
       <r>     5.1502    30.3125   179.0432 </r>
       <r>     5.2393    29.7614   181.6960 </r>
       <r>     5.3284    31.2620   184.4827 </r>
       <r>     5.4176    32.1587   187.3492 </r>
       <r>     5.5067    33.2857   190.3162 </r>
       <r>     5.5958    36.0856   193.5328 </r>
       <r>     5.6850    38.1221   196.9309 </r>
       <r>     5.7741    37.2779   200.2537 </r>
       <r>     5.8633    35.4845   203.4167 </r>
       <r>     5.9524    34.1095   206.4571 </r>
       <r>     6.0415    31.5600   209.2703 </r>
       <r>     6.1307    28.4136   211.8030 </r>
       <r>     6.2198    28.2665   214.3226 </r>
       <r>     6.3089    31.2186   217.1054 </r>
       <r>     6.3981    33.7002   220.1093 </r>
       <r>     6.4872    34.0225   223.1420 </r>
       <r>     6.5764    32.4153   226.0314 </r>
       <r>     6.6655    29.5907   228.6690 </r>
       <r>     6.7546    27.7169   231.1396 </r>
       <r>     6.8438    28.8000   233.7068 </r>
       <r>     6.9329    31.7838   236.5399 </r>
       <r>     7.0220    32.9207   239.4744 </r>
       <r>     7.1112    29.3722   242.0925 </r>
       <r>     7.2003    22.4058   244.0897 </r>
       <r>     7.2895    16.2675   245.5398 </r>
       <r>     7.3786    13.9091   246.7796 </r>
       <r>     7.4677    15.0173   248.1182 </r>
       <r>     7.5569    17.4918   249.6773 </r>
       <r>     7.6460    18.8894   251.3611 </r>
       <r>     7.7351    17.4578   252.9172 </r>
       <r>     7.8243    13.3198   254.1045 </r>
       <r>     7.9134     8.5669   254.8682 </r>
       <r>     8.0026     5.4986   255.3583 </r>
       <r>     8.0917     4.0409   255.7185 </r>
       <r>     8.1808     2.5654   255.9471 </r>
       <r>     8.2700     0.9115   256.0284 </r>
       <r>     8.3591    -0.0245   256.0262 </r>
       <r>     8.4482    -0.1815   256.0100 </r>
       <r>     8.5374    -0.0868   256.0023 </r>
       <r>     8.6265    -0.0221   256.0003 </r>
       <r>     8.7157    -0.0041   256.0000 </r>
       <r>     8.8048    -0.0043   255.9996 </r>
       <r>     8.8939    -0.0137   255.9984 </r>
       <r>     8.9831    -0.0218   255.9964 </r>
       <r>     9.0722     0.0166   255.9979 </r>
       <r>     9.1613     0.1549   256.0117 </r>
       <r>     9.2505     0.3635   256.0441 </r>
       <r>     9.3396     0.5372   256.0920 </r>
       <r>     9.4288     0.6778   256.1524 </r>
       <r>     9.5179     1.0262   256.2439 </r>
       <r>     9.6070     1.6244   256.3887 </r>
       <r>     9.6962     1.7953   256.5487 </r>
       <r>     9.7853     1.0715   256.6442 </r>
       <r>     9.8744     0.1350   256.6563 </r>
       <r>     9.9636    -0.0754   256.6495 </r>
       <r>    10.0527     0.8067   256.7214 </r>
       <r>    10.1419     2.5890   256.9522 </r>
       <r>    10.2310     4.6994   257.3711 </r>
       <r>    10.3201     6.7419   257.9721 </r>
       <r>    10.4093     8.7862   258.7552 </r>
       <r>    10.4984    10.7372   259.7123 </r>
       <r>    10.5875    11.5871   260.7452 </r>
       <r>    10.6767    10.1279   261.6479 </r>
       <r>    10.7658     6.5434   262.2312 </r>
       <r>    10.8549     2.5717   262.4604 </r>
       <r>    10.9441    -0.0116   262.4594 </r>
       <r>    11.0332    -0.5869   262.4071 </r>
       <r>    11.1224     0.9833   262.4947 </r>
       <r>    11.2115     4.4343   262.8900 </r>
       <r>    11.3006     7.8507   263.5898 </r>
       <r>    11.3898     9.4679   264.4337 </r>
       <r>    11.4789    10.2129   265.3441 </r>
       <r>    11.5680    11.5127   266.3703 </r>
       <r>    11.6572    13.3207   267.5576 </r>
       <r>    11.7463    15.4525   268.9350 </r>
       <r>    11.8355    17.4577   270.4912 </r>
       <r>    11.9246    18.2864   272.1212 </r>
       <r>    12.0137    17.9482   273.7210 </r>
       <r>    12.1029    16.7341   275.2126 </r>
       <r>    12.1920    13.4480   276.4114 </r>
       <r>    12.2811     8.6069   277.1786 </r>
       <r>    12.3703     6.3640   277.7458 </r>
       <r>    12.4594     9.0274   278.5505 </r>
       <r>    12.5486    14.4426   279.8379 </r>
       <r>    12.6377    20.4526   281.6610 </r>
       <r>    12.7268    26.3950   284.0137 </r>
       <r>    12.8160    30.9569   286.7732 </r>
       <r>    12.9051    32.7734   289.6945 </r>
       <r>    12.9942    31.7712   292.5265 </r>
       <r>    13.0834    29.1177   295.1220 </r>
       <r>    13.1725    25.8714   297.4281 </r>
       <r>    13.2617    21.9096   299.3810 </r>
       <r>    13.3508    18.8134   301.0580 </r>
       <r>    13.4399    20.3671   302.8735 </r>
       <r>    13.5291    26.1892   305.2079 </r>
       <r>    13.6182    30.6741   307.9421 </r>
       <r>    13.7073    30.9619   310.7020 </r>
       <r>    13.7965    29.6694   313.3466 </r>
       <r>    13.8856    29.5527   315.9809 </r>
       <r>    13.9748    30.2373   318.6762 </r>
       <r>    14.0639    29.5731   321.3122 </r>
       <r>    14.1530    25.5636   323.5909 </r>
       <r>    14.2422    18.0915   325.2035 </r>
       <r>    14.3313    10.2193   326.1144 </r>
       <r>    14.4204     6.5850   326.7014 </r>
       <r>    14.5096     9.7458   327.5701 </r>
       <r>    14.5987    17.0450   329.0895 </r>
       <r>    14.6879    21.8063   331.0332 </r>
       <r>    14.7770    19.9864   332.8148 </r>
       <r>    14.8661    13.6117   334.0281 </r>
       <r>    14.9553     6.8888   334.6421 </r>
       <r>    15.0444     2.6859   334.8815 </r>
       <r>    15.1335     1.9652   335.0567 </r>
       <r>    15.2227     3.2687   335.3481 </r>
       <r>    15.3118     3.8567   335.6918 </r>
       <r>    15.4010     2.6839   335.9311 </r>
       <r>    15.4901     0.9898   336.0193 </r>
       <r>    15.5792     0.0387   336.0228 </r>
       <r>    15.6684    -0.1497   336.0094 </r>
       <r>    15.7575    -0.0797   336.0023 </r>
       <r>    15.8466    -0.0218   336.0004 </r>
       <r>    15.9358    -0.0037   336.0000 </r>
       <r>    16.0249    -0.0004   336.0000 </r>
       <r>    16.1140    -0.0000   336.0000 </r>
       <r>    16.2032    -0.0000   336.0000 </r>
       <r>    16.2923    -0.0000   336.0000 </r>
       <r>    16.3815    -0.0000   336.0000 </r>
       <r>    16.4706    -0.0000   336.0000 </r>
       <r>    16.5597    -0.0000   336.0000 </r>
       <r>    16.6489    -0.0000   336.0000 </r>
       <r>    16.7380     0.0000   336.0000 </r>
       <r>    16.8271     0.0000   336.0000 </r>
       <r>    16.9163     0.0000   336.0000 </r>
       <r>    17.0054     0.0000   336.0000 </r>
       <r>    17.0946     0.0000   336.0000 </r>
       <r>    17.1837     0.0000   336.0000 </r>
       <r>    17.2728     0.0000   336.0000 </r>
       <r>    17.3620     0.0000   336.0000 </r>
      </set>
     </set>
    </array>
   </total>
  </dos>
 </calculation>
 <structure name="finalpos" >
  <crystal>
   <varray name="basis" >
    <v>       8.74331558       0.00000000       0.00000000 </v>
    <v>       0.00000000       8.74331558       0.00000000 </v>
    <v>       0.00000000       0.00000000       8.74331558 </v>
   </varray>
   <i name="volume">    668.38771987 </i>
   <varray name="rec_basis" >
    <v>       0.11437309       0.00000000       0.00000000 </v>
    <v>       0.00000000       0.11437309       0.00000000 </v>
    <v>       0.00000000       0.00000000       0.11437309 </v>
   </varray>
  </crystal>
  <varray name="positions" >
   <v>       0.12387902       0.13550156       0.11967342 </v>
   <v>       0.12666376       0.36691273       0.37264074 </v>
   <v>       0.37552516       0.11732838       0.38149004 </v>
   <v>       0.37147848       0.37036567       0.12759167 </v>
   <v>       0.12988863       0.12918855       0.61767226 </v>
   <v>       0.13573534       0.37243317       0.87811164 </v>
   <v>       0.37277286       0.11892806       0.87467850 </v>
   <v>       0.37083707       0.36776456       0.61439340 </v>
   <v>       0.11450028       0.62466626       0.12680906 </v>
   <v>       0.12638783       0.87733923       0.37243938 </v>
   <v>       0.37981037       0.61957672       0.38169533 </v>
   <v>       0.37480425       0.88210238       0.11727635 </v>
   <v>       0.12253517       0.62822842       0.62761950 </v>
   <v>       0.12832339       0.87697458       0.88218240 </v>
   <v>       0.36249939       0.62759879       0.86879717 </v>
   <v>       0.37443775       0.87659131       0.62245407 </v>
   <v>       0.61788974       0.12618849       0.11930776 </v>
   <v>       0.62264256       0.37882660       0.37390453 </v>
   <v>       0.86886285       0.12890499       0.37778430 </v>
   <v>       0.87217993       0.37462197       0.12789135 </v>
   <v>       0.62634567       0.12680145       0.62476123 </v>
   <v>       0.63062868       0.38548511       0.87330989 </v>
   <v>       0.87577750       0.12161765       0.88023782 </v>
   <v>       0.87528211       0.37090722       0.62624096 </v>
   <v>       0.61906624       0.61909223       0.12206815 </v>
   <v>       0.63269270       0.86854477       0.38267474 </v>
   <v>       0.87848992       0.62329031       0.37876116 </v>
   <v>       0.87031296       0.88692814       0.12837259 </v>
   <v>       0.63035956       0.62817133       0.62085218 </v>
   <v>       0.62029582       0.87449114       0.87397328 </v>
   <v>       0.88176136       0.62593169       0.87471966 </v>
   <v>       0.87729708       0.87115136       0.62512784 </v>
   <v>       0.00091933       0.99844809       0.00065054 </v>
   <v>       0.99416508       0.25034808       0.25198136 </v>
   <v>       0.24542285       0.99495721       0.25737941 </v>
   <v>       0.25181824       0.24961297       0.00229552 </v>
   <v>       0.00267746       0.99830151       0.50007637 </v>
   <v>       0.99600057       0.24696866       0.74355782 </v>
   <v>       0.24843572       0.00118728       0.75155130 </v>
   <v>       0.24489731       0.25211570       0.50492770 </v>
   <v>       0.00117700       0.49865355       0.00579532 </v>
   <v>       0.99405271       0.75161073       0.25114902 </v>
   <v>       0.24967540       0.50436507       0.24661647 </v>
   <v>       0.24412093       0.74666333       0.00403117 </v>
   <v>       0.00488359       0.49898417       0.49995807 </v>
   <v>       0.99484484       0.75128105       0.74953494 </v>
   <v>       0.25477037       0.49144154       0.74561675 </v>
   <v>       0.25169299       0.75086974       0.49926593 </v>
   <v>       0.49962006       0.99793983       0.00460869 </v>
   <v>       0.50229158       0.25223743       0.24675253 </v>
   <v>       0.75680600       0.99664462       0.25413320 </v>
   <v>       0.75522303       0.24333122       0.00139208 </v>
   <v>       0.49975119       0.98843430       0.49335745 </v>
   <v>       0.49698038       0.24119803       0.74348736 </v>
   <v>       0.74968702       0.99121177       0.74611289 </v>
   <v>       0.74886996       0.25324799       0.49934640 </v>
   <v>       0.50837211       0.50700816       0.00056353 </v>
   <v>       0.50392604       0.75182582       0.24582185 </v>
   <v>       0.74079442       0.49795170       0.25320501 </v>
   <v>       0.75114423       0.74562453       0.99596443 </v>
   <v>       0.49959968       0.49673854       0.50300322 </v>
   <v>       0.50232639       0.74861046       0.75172614 </v>
   <v>       0.74454231       0.49818038       0.75297829 </v>
   <v>       0.75130391       0.75149133       0.50352669 </v>
  </varray>
 </structure>
</modeling>
