unknown system                          
           1
     8.743316    0.000000    0.000000
     0.000000    8.743316    0.000000
     0.000000    0.000000    8.743316
   C    Si
    32    32
Direct configuration=     1
   0.12387902  0.13550156  0.11967342
   0.12666376  0.36691273  0.37264074
   0.37552516  0.11732838  0.38149004
   0.37147848  0.37036567  0.12759167
   0.12988863  0.12918855  0.61767226
   0.13573534  0.37243317  0.87811164
   0.37277286  0.11892806  0.87467850
   0.37083707  0.36776456  0.61439340
   0.11450028  0.62466626  0.12680906
   0.12638783  0.87733923  0.37243938
   0.37981037  0.61957672  0.38169533
   0.37480425  0.88210238  0.11727635
   0.12253517  0.62822842  0.62761950
   0.12832339  0.87697458  0.88218240
   0.36249939  0.62759879  0.86879717
   0.37443775  0.87659131  0.62245407
   0.61788974  0.12618849  0.11930776
   0.62264256  0.37882660  0.37390453
   0.86886285  0.12890499  0.37778430
   0.87217993  0.37462197  0.12789135
   0.62634567  0.12680145  0.62476123
   0.63062868  0.38548511  0.87330989
   0.87577750  0.12161765  0.88023782
   0.87528211  0.37090722  0.62624096
   0.61906624  0.61909223  0.12206815
   0.63269270  0.86854477  0.38267474
   0.87848992  0.62329031  0.37876116
   0.87031296  0.88692814  0.12837259
   0.63035956  0.62817133  0.62085218
   0.62029582  0.87449114  0.87397328
   0.88176136  0.62593169  0.87471966
   0.87729708  0.87115136  0.62512784
   0.00091933  0.99844809  0.00065054
   0.99416508  0.25034808  0.25198136
   0.24542285  0.99495721  0.25737941
   0.25181824  0.24961297  0.00229552
   0.00267746  0.99830151  0.50007637
   0.99600057  0.24696866  0.74355782
   0.24843572  0.00118728  0.75155130
   0.24489731  0.25211570  0.50492770
   0.00117700  0.49865355  0.00579532
   0.99405271  0.75161073  0.25114902
   0.24967540  0.50436507  0.24661647
   0.24412093  0.74666333  0.00403117
   0.00488359  0.49898417  0.49995807
   0.99484484  0.75128105  0.74953494
   0.25477037  0.49144154  0.74561675
   0.25169299  0.75086974  0.49926593
   0.49962006  0.99793983  0.00460869
   0.50229158  0.25223743  0.24675253
   0.75680600  0.99664462  0.25413320
   0.75522303  0.24333122  0.00139208
   0.49975119  0.98843430  0.49335745
   0.49698038  0.24119803  0.74348736
   0.74968702  0.99121177  0.74611289
   0.74886996  0.25324799  0.49934640
   0.50837211  0.50700816  0.00056353
   0.50392604  0.75182582  0.24582185
   0.74079442  0.49795170  0.25320501
   0.75114423  0.74562453  0.99596443
   0.49959968  0.49673854  0.50300322
   0.50232639  0.74861046  0.75172614
   0.74454231  0.49818038  0.75297829
   0.75130391  0.75149133  0.50352669
