       N       E                     dE             d eps       ncg     rms          rms(c)
DAV:   1     0.668597425216E+03    0.66860E+03   -0.99546E+04  4704   0.111E+03
DAV:   2    -0.463201413712E+03   -0.11318E+04   -0.10719E+04  5832   0.221E+02
DAV:   3    -0.538142068374E+03   -0.74941E+02   -0.74256E+02  5672   0.560E+01
DAV:   4    -0.539794578819E+03   -0.16525E+01   -0.16457E+01  5704   0.902E+00
DAV:   5    -0.539839597509E+03   -0.45019E-01   -0.44949E-01  5536   0.142E+00    0.491E+01
DAV:   6    -0.483334239898E+03    0.56505E+02   -0.18996E+02  5360   0.234E+01    0.218E+01
DAV:   7    -0.481966681895E+03    0.13676E+01   -0.15514E+01  5864   0.696E+00    0.972E+00
DAV:   8    -0.481740031828E+03    0.22665E+00   -0.99325E-01  5384   0.193E+00    0.256E+00
DAV:   9    -0.481723916609E+03    0.16115E-01   -0.13363E-01  5424   0.782E-01    0.420E-01
DAV:  10    -0.481727398922E+03   -0.34823E-02   -0.12276E-02  5656   0.232E-01    0.216E-01
DAV:  11    -0.481728104661E+03   -0.70574E-03   -0.15837E-03  5128   0.102E-01    0.619E-02
DAV:  12    -0.481728100944E+03    0.37162E-05   -0.19754E-04  5648   0.322E-02    0.310E-02
DAV:  13    -0.481728105687E+03   -0.47426E-05   -0.36783E-05  5256   0.157E-02    0.957E-03
DAV:  14    -0.481728112785E+03   -0.70976E-05   -0.65025E-06  5408   0.493E-03    0.450E-03
DAV:  15    -0.481728114206E+03   -0.14212E-05   -0.64477E-07  5552   0.197E-03    0.276E-03
DAV:  16    -0.481728114271E+03   -0.64971E-07   -0.42729E-08  4904   0.518E-04    0.151E-03
DAV:  17    -0.481728114184E+03    0.86970E-07   -0.12970E-08  2960   0.286E-04    0.499E-04
DAV:  18    -0.481728114177E+03    0.72505E-08   -0.54855E-09  2752   0.175E-04
   1 F= -.48172811E+03 E0= -.48173121E+03  d E =0.929447E-02
