unknown system                          
           1
     8.743316    0.000000    0.000000
     0.000000    8.743316    0.000000
     0.000000    0.000000    8.743316
   C    Si
    32    32
Direct configuration=     1
   0.12704960  0.12517735  0.12250258
   0.12440661  0.37650826  0.37695658
   0.37468302  0.12481166  0.37652331
   0.37987409  0.37347714  0.12697937
   0.12352411  0.12450247  0.62462204
   0.12634303  0.37397860  0.87486354
   0.37315866  0.12543031  0.87575282
   0.37225304  0.37532772  0.62424320
   0.12652500  0.62532035  0.12704293
   0.12627512  0.87373058  0.37573147
   0.37518782  0.62469887  0.37615214
   0.37444143  0.87692471  0.12455524
   0.12620163  0.62347248  0.62670331
   0.12411151  0.87401962  0.87522192
   0.37208272  0.62603839  0.87760154
   0.37695275  0.87753678  0.62508799
   0.62600854  0.12655010  0.12673547
   0.62502672  0.37815299  0.37465371
   0.87401693  0.12532394  0.37752934
   0.87390894  0.37461399  0.12366362
   0.62851830  0.12471338  0.62363430
   0.62654181  0.37577360  0.87465766
   0.87559941  0.12485281  0.87621182
   0.87658765  0.37649205  0.62404388
   0.62402702  0.62345320  0.12516055
   0.62344765  0.87488110  0.37318330
   0.87429772  0.62555084  0.37446505
   0.87319510  0.87416569  0.12345711
   0.62414939  0.62402111  0.62310627
   0.62465924  0.87495438  0.87303947
   0.87235344  0.62383031  0.87759914
   0.87739856  0.87616580  0.62651150
   0.99942119  0.00107728  0.00123905
   0.99953950  0.25037851  0.25091533
   0.24977634  0.99864073  0.24922356
   0.25064090  0.25085318  0.00112482
   0.00073296  0.00180929  0.49955245
   0.00079584  0.24987196  0.75064899
   0.24813663  0.99941243  0.74801961
   0.25200305  0.24827648  0.50167037
   0.00043990  0.49901819  0.99844074
   0.00167431  0.74919063  0.24877352
   0.24873277  0.50042700  0.24828664
   0.24872590  0.74930515  0.00117217
   0.99954154  0.49768494  0.49884763
   0.00180423  0.75079094  0.75059261
   0.25024763  0.50009252  0.75071718
   0.24933135  0.74928565  0.50276605
   0.49859013  0.99910108  0.00062334
   0.50218292  0.25030122  0.24798656
   0.75157725  0.00079999  0.25004359
   0.74948080  0.24788583  0.99928518
   0.50049260  0.00040013  0.50222906
   0.49911785  0.24648740  0.74897990
   0.75110729  0.99838612  0.75138209
   0.75097964  0.24986753  0.49950261
   0.49817008  0.50223160  0.00079983
   0.49998746  0.74922287  0.24993632
   0.75016406  0.49989319  0.24790691
   0.75089892  0.74898798  0.00145645
   0.49909097  0.50091035  0.49921591
   0.49774356  0.75143699  0.75092418
   0.75021637  0.49936340  0.74699033
   0.74773311  0.75076473  0.49984520
