       N       E                     dE             d eps       ncg     rms          rms(c)
DAV:   1     0.669350972909E+03    0.66935E+03   -0.99553E+04  4704   0.111E+03
DAV:   2    -0.463138557047E+03   -0.11325E+04   -0.10731E+04  5848   0.221E+02
DAV:   3    -0.537724378996E+03   -0.74586E+02   -0.73899E+02  5688   0.559E+01
DAV:   4    -0.539360417782E+03   -0.16360E+01   -0.16292E+01  5688   0.900E+00
DAV:   5    -0.539406421146E+03   -0.46003E-01   -0.45933E-01  5608   0.143E+00    0.492E+01
DAV:   6    -0.482688394743E+03    0.56718E+02   -0.19036E+02  5344   0.235E+01    0.218E+01
DAV:   7    -0.481332704892E+03    0.13557E+01   -0.15739E+01  5864   0.704E+00    0.974E+00
DAV:   8    -0.481104391928E+03    0.22831E+00   -0.10150E+00  5392   0.196E+00    0.264E+00
DAV:   9    -0.481088166562E+03    0.16225E-01   -0.14223E-01  5456   0.818E-01    0.435E-01
DAV:  10    -0.481091075433E+03   -0.29089E-02   -0.12617E-02  5848   0.251E-01    0.240E-01
DAV:  11    -0.481092176061E+03   -0.11006E-02   -0.21188E-03  5152   0.116E-01    0.819E-02
DAV:  12    -0.481092187967E+03   -0.11906E-04   -0.28867E-04  6392   0.427E-02    0.421E-02
DAV:  13    -0.481092200450E+03   -0.12483E-04   -0.10088E-04  5160   0.233E-02    0.108E-02
DAV:  14    -0.481092206508E+03   -0.60574E-05   -0.68998E-06  5528   0.555E-03    0.536E-03
DAV:  15    -0.481092208345E+03   -0.18371E-05   -0.17086E-06  5704   0.298E-03    0.359E-03
DAV:  16    -0.481092208116E+03    0.22822E-06   -0.19492E-07  5824   0.118E-03    0.139E-03
DAV:  17    -0.481092208350E+03   -0.23409E-06   -0.96323E-08  5160   0.668E-04    0.713E-04
DAV:  18    -0.481092208369E+03   -0.18303E-07   -0.75846E-09  2760   0.243E-04    0.313E-04
DAV:  19    -0.481092208342E+03    0.26605E-07   -0.66581E-09  2712   0.177E-04    0.102E-04
DAV:  20    -0.481092208345E+03   -0.27030E-08   -0.76770E-10  2704   0.856E-05
   1 F= -.48109221E+03 E0= -.48109552E+03  d E =0.992796E-02
