<?xml version="1.0" encoding="ISO-8859-1"?>
<modeling>
 <generator>
  <i name="program" type="string">vasp </i>
  <i name="version" type="string">6.2.1  </i>
  <i name="subversion" type="string">16May21 (build Jun 06 2020 10:27:25) complex                          parallel </i>
  <i name="platform" type="string">LinuxIFC </i>
  <i name="date" type="string">2024 01 25 </i>
  <i name="time" type="string">17:15:28 </i>
 </generator>
 <incar>
  <i type="int" name="NELM">    60</i>
  <i type="int" name="IBRION">     1</i>
  <i name="EDIFF">      0.00000001</i>
  <i type="int" name="NSW">     0</i>
  <i type="int" name="ISIF">     3</i>
  <i type="int" name="ISYM">     0</i>
  <i type="logical" name="LWAVE"> F  </i>
  <i type="logical" name="LCHARG"> F  </i>
  <i type="string" name="GGA">PE</i>
 </incar>
 <primitive_cell>
  <structure name="primitive_cell" >
   <crystal>
    <varray name="basis" >
     <v>       8.74331558       0.00000000       0.00000000 </v>
     <v>       0.00000000       8.74331558       0.00000000 </v>
     <v>       0.00000000       0.00000000       8.74331558 </v>
    </varray>
    <i name="volume">    668.38771987 </i>
    <varray name="rec_basis" >
     <v>       0.11437309       0.00000000       0.00000000 </v>
     <v>       0.00000000       0.11437309       0.00000000 </v>
     <v>       0.00000000       0.00000000       0.11437309 </v>
    </varray>
   </crystal>
   <varray name="positions" >
    <v>       0.12912136       0.12946794       0.11954675 </v>
    <v>       0.12261219       0.37396578       0.37622105 </v>
    <v>       0.37676319       0.12721761       0.37616967 </v>
    <v>       0.37453619       0.37646376       0.12346451 </v>
    <v>       0.12056793       0.12406144       0.62778410 </v>
    <v>       0.13129271       0.37333073       0.87210972 </v>
    <v>       0.37574765       0.12562553       0.87459342 </v>
    <v>       0.37679242       0.37170446       0.62493343 </v>
    <v>       0.12542730       0.62445165       0.12644112 </v>
    <v>       0.12413944       0.87323271       0.37450529 </v>
    <v>       0.37585190       0.62325360       0.37392996 </v>
    <v>       0.37425693       0.87644282       0.12574020 </v>
    <v>       0.12958835       0.62863402       0.62375818 </v>
    <v>       0.12944029       0.87642388       0.87769653 </v>
    <v>       0.37675576       0.62304673       0.87644585 </v>
    <v>       0.37315330       0.87268808       0.62938991 </v>
    <v>       0.63021788       0.12781552       0.12492148 </v>
    <v>       0.62254226       0.37617472       0.37392895 </v>
    <v>       0.87493934       0.12704045       0.37771366 </v>
    <v>       0.87600404       0.37353196       0.12551416 </v>
    <v>       0.62456369       0.12671028       0.62440077 </v>
    <v>       0.62387979       0.37226022       0.87390455 </v>
    <v>       0.87786536       0.12192241       0.87355275 </v>
    <v>       0.87153328       0.36910148       0.62508677 </v>
    <v>       0.62685624       0.62587138       0.12453132 </v>
    <v>       0.62252424       0.87208005       0.37653745 </v>
    <v>       0.87980387       0.62345346       0.37627595 </v>
    <v>       0.87286990       0.87204348       0.12365843 </v>
    <v>       0.62499668       0.62746092       0.62934854 </v>
    <v>       0.62166007       0.87704855       0.87755728 </v>
    <v>       0.87322256       0.62299548       0.87504970 </v>
    <v>       0.87428042       0.87816762       0.62227950 </v>
    <v>       0.99794048       0.00317487       0.00134131 </v>
    <v>       0.99989747       0.24694860       0.24798169 </v>
    <v>       0.24870901       0.00028302       0.25206753 </v>
    <v>       0.24922639       0.24561000       0.99626133 </v>
    <v>       0.00147254       0.99762546       0.50156414 </v>
    <v>       0.00053158       0.24804117       0.74629859 </v>
    <v>       0.24792071       0.99976118       0.75305334 </v>
    <v>       0.24817000       0.25145964       0.49778707 </v>
    <v>       0.99884414       0.50232002       0.99987306 </v>
    <v>       0.99722877       0.74578485       0.25014921 </v>
    <v>       0.24841357       0.50041804       0.24986247 </v>
    <v>       0.25130530       0.74950421       0.99919189 </v>
    <v>       0.99990184       0.49740258       0.50046885 </v>
    <v>       0.99244711       0.74944951       0.74772621 </v>
    <v>       0.25245330       0.50120244       0.75184148 </v>
    <v>       0.25081081       0.75159464       0.50002074 </v>
    <v>       0.49928025       0.99855244       0.99734330 </v>
    <v>       0.50047526       0.25180677       0.25242701 </v>
    <v>       0.74704639       0.00276199       0.24777658 </v>
    <v>       0.75071641       0.25103861       0.00201376 </v>
    <v>       0.49830889       0.99958869       0.50001588 </v>
    <v>       0.49811067       0.25072996       0.75085132 </v>
    <v>       0.74522354       0.99846349       0.75137623 </v>
    <v>       0.74882066       0.25390418       0.50155621 </v>
    <v>       0.50172095       0.49979047       0.99978403 </v>
    <v>       0.50243094       0.75010998       0.24865184 </v>
    <v>       0.74698756       0.50272532       0.25060132 </v>
    <v>       0.75302984       0.74829083       0.00094008 </v>
    <v>       0.49944400       0.50089399       0.50027776 </v>
    <v>       0.49430502       0.74798232       0.75094532 </v>
    <v>       0.74520715       0.49874564       0.75523257 </v>
    <v>       0.75292977       0.75254890       0.49730935 </v>
   </varray>
  </structure>
  <varray name="primitive_index" >
   <v type="int" >        1 </v>
   <v type="int" >        2 </v>
   <v type="int" >        3 </v>
   <v type="int" >        4 </v>
   <v type="int" >        5 </v>
   <v type="int" >        6 </v>
   <v type="int" >        7 </v>
   <v type="int" >        8 </v>
   <v type="int" >        9 </v>
   <v type="int" >       10 </v>
   <v type="int" >       11 </v>
   <v type="int" >       12 </v>
   <v type="int" >       13 </v>
   <v type="int" >       14 </v>
   <v type="int" >       15 </v>
   <v type="int" >       16 </v>
   <v type="int" >       17 </v>
   <v type="int" >       18 </v>
   <v type="int" >       19 </v>
   <v type="int" >       20 </v>
   <v type="int" >       21 </v>
   <v type="int" >       22 </v>
   <v type="int" >       23 </v>
   <v type="int" >       24 </v>
   <v type="int" >       25 </v>
   <v type="int" >       26 </v>
   <v type="int" >       27 </v>
   <v type="int" >       28 </v>
   <v type="int" >       29 </v>
   <v type="int" >       30 </v>
   <v type="int" >       31 </v>
   <v type="int" >       32 </v>
   <v type="int" >       33 </v>
   <v type="int" >       34 </v>
   <v type="int" >       35 </v>
   <v type="int" >       36 </v>
   <v type="int" >       37 </v>
   <v type="int" >       38 </v>
   <v type="int" >       39 </v>
   <v type="int" >       40 </v>
   <v type="int" >       41 </v>
   <v type="int" >       42 </v>
   <v type="int" >       43 </v>
   <v type="int" >       44 </v>
   <v type="int" >       45 </v>
   <v type="int" >       46 </v>
   <v type="int" >       47 </v>
   <v type="int" >       48 </v>
   <v type="int" >       49 </v>
   <v type="int" >       50 </v>
   <v type="int" >       51 </v>
   <v type="int" >       52 </v>
   <v type="int" >       53 </v>
   <v type="int" >       54 </v>
   <v type="int" >       55 </v>
   <v type="int" >       56 </v>
   <v type="int" >       57 </v>
   <v type="int" >       58 </v>
   <v type="int" >       59 </v>
   <v type="int" >       60 </v>
   <v type="int" >       61 </v>
   <v type="int" >       62 </v>
   <v type="int" >       63 </v>
   <v type="int" >       64 </v>
  </varray>
 </primitive_cell>
 <kpoints>
  <generation param="Monkhorst-Pack">
   <v type="int" name="divisions">       3        3        3 </v>
   <v name="usershift">      0.00000000       0.00000000       0.00000000 </v>
   <v name="genvec1">      0.33333333       0.00000000       0.00000000 </v>
   <v name="genvec2">      0.00000000       0.33333333       0.00000000 </v>
   <v name="genvec3">      0.00000000       0.00000000       0.33333333 </v>
   <v name="shift">      0.00000000       0.00000000       0.00000000 </v>
  </generation>
  <varray name="kpointlist" >
   <v>       0.00000000       0.00000000       0.00000000 </v>
   <v>       0.33333333       0.00000000       0.00000000 </v>
   <v>       0.00000000       0.33333333       0.00000000 </v>
   <v>       0.00000000       0.00000000       0.33333333 </v>
   <v>       0.33333333       0.33333333       0.00000000 </v>
   <v>       0.00000000       0.33333333       0.33333333 </v>
   <v>       0.33333333       0.00000000       0.33333333 </v>
   <v>      -0.33333333       0.33333333       0.00000000 </v>
   <v>      -0.33333333       0.00000000       0.33333333 </v>
   <v>       0.00000000      -0.33333333       0.33333333 </v>
   <v>       0.33333333       0.33333333       0.33333333 </v>
   <v>      -0.33333333       0.33333333       0.33333333 </v>
   <v>      -0.33333333      -0.33333333       0.33333333 </v>
   <v>       0.33333333      -0.33333333       0.33333333 </v>
  </varray>
  <varray name="weights" >
   <v>       0.03703704 </v>
   <v>       0.07407407 </v>
   <v>       0.07407407 </v>
   <v>       0.07407407 </v>
   <v>       0.07407407 </v>
   <v>       0.07407407 </v>
   <v>       0.07407407 </v>
   <v>       0.07407407 </v>
   <v>       0.07407407 </v>
   <v>       0.07407407 </v>
   <v>       0.07407407 </v>
   <v>       0.07407407 </v>
   <v>       0.07407407 </v>
   <v>       0.07407407 </v>
  </varray>
 </kpoints>
 <parameters>
  <separator name="general" >
   <i type="string" name="SYSTEM">unknown system</i>
   <i type="logical" name="LCOMPAT"> F  </i>
  </separator>
  <separator name="electronic" >
   <i type="string" name="PREC">normal</i>
   <i name="ENMAX">    400.00000000</i>
   <i name="ENAUG">    644.87300000</i>
   <i name="EDIFF">      0.00000001</i>
   <i type="int" name="IALGO">    38</i>
   <i type="int" name="IWAVPR">    10</i>
   <i type="int" name="NBANDS">   168</i>
   <i type="int" name="NBANDSLOW">    -1</i>
   <i type="int" name="NBANDSHIGH">    -1</i>
   <i name="NELECT">    256.00000000</i>
   <i type="int" name="TURBO">     0</i>
   <i type="int" name="IRESTART">     0</i>
   <i type="int" name="NREBOOT">     0</i>
   <i type="int" name="NMIN">     0</i>
   <i name="EREF">      0.00000000</i>
   <separator name="electronic smearing" >
    <i type="int" name="ISMEAR">     1</i>
    <i name="SIGMA">      0.20000000</i>
    <i name="KSPACING">      0.50000000</i>
    <i type="logical" name="KGAMMA"> T  </i>
    <i type="logical" name="KBLOWUP"> T  </i>
   </separator>
   <separator name="electronic projectors" >
    <i type="logical" name="LREAL"> F  </i>
    <v name="ROPT">      0.00000000      0.00000000</v>
    <i type="int" name="LMAXPAW">  -100</i>
    <i type="int" name="LMAXMIX">     2</i>
    <i type="logical" name="NLSPLINE"> F  </i>
   </separator>
   <separator name="electronic startup" >
    <i type="int" name="ISTART">     0</i>
    <i type="int" name="ICHARG">     2</i>
    <i type="int" name="INIWAV">     1</i>
   </separator>
   <separator name="electronic spin" >
    <i type="int" name="ISPIN">     1</i>
    <i type="logical" name="LNONCOLLINEAR"> F  </i>
    <v name="MAGMOM">      1.00000000      1.00000000      1.00000000      1.00000000      1.00000000      1.00000000      1.00000000      1.00000000      1.00000000      1.00000000      1.00000000      1.00000000      1.00000000      1.00000000      1.00000000      1.00000000      1.00000000      1.00000000      1.00000000      1.00000000
      1.00000000      1.00000000      1.00000000      1.00000000      1.00000000      1.00000000      1.00000000      1.00000000      1.00000000      1.00000000      1.00000000      1.00000000      1.00000000      1.00000000      1.00000000      1.00000000      1.00000000      1.00000000      1.00000000      1.00000000
      1.00000000      1.00000000      1.00000000      1.00000000      1.00000000      1.00000000      1.00000000      1.00000000      1.00000000      1.00000000      1.00000000      1.00000000      1.00000000      1.00000000      1.00000000      1.00000000      1.00000000      1.00000000      1.00000000      1.00000000
      1.00000000      1.00000000      1.00000000      1.00000000</v>
    <i name="NUPDOWN">     -1.00000000</i>
    <i type="logical" name="LSORBIT"> F  </i>
    <v name="SAXIS">      0.00000000      0.00000000      1.00000000</v>
    <i type="logical" name="LSPIRAL"> F  </i>
    <v name="QSPIRAL">      0.00000000      0.00000000      0.00000000</v>
    <i type="logical" name="LZEROZ"> F  </i>
   </separator>
   <separator name="electronic exchange-correlation" >
    <i type="logical" name="LASPH"> F  </i>
    <i type="logical" name="LMETAGGA"> F  </i>
   </separator>
   <separator name="electronic convergence" >
    <i type="int" name="NELM">    60</i>
    <i type="int" name="NELMDL">    -5</i>
    <i type="int" name="NELMIN">     2</i>
    <i name="ENINI">    400.00000000</i>
    <separator name="electronic convergence detail" >
     <i type="logical" name="LDIAG"> T  </i>
     <i type="logical" name="LSUBROT"> F  </i>
     <i name="WEIMIN">      0.00000000</i>
     <i name="EBREAK">      0.00000000</i>
     <i name="DEPER">      0.30000000</i>
     <i type="int" name="NRMM">     4</i>
     <i name="TIME">      0.40000000</i>
    </separator>
   </separator>
   <separator name="electronic mixer" >
    <i name="AMIX">      0.40000000</i>
    <i name="BMIX">      1.00000000</i>
    <i name="AMIN">      0.10000000</i>
    <i name="AMIX_MAG">      1.60000000</i>
    <i name="BMIX_MAG">      1.00000000</i>
    <separator name="electronic mixer details" >
     <i type="int" name="IMIX">     4</i>
     <i type="logical" name="MIXFIRST"> F  </i>
     <i type="int" name="MAXMIX">   -45</i>
     <i name="WC">    100.00000000</i>
     <i type="int" name="INIMIX">     1</i>
     <i type="int" name="MIXPRE">     1</i>
     <i type="int" name="MREMOVE">     5</i>
    </separator>
   </separator>
   <separator name="electronic dipolcorrection" >
    <i type="logical" name="LDIPOL"> F  </i>
    <i type="logical" name="LMONO"> F  </i>
    <i type="int" name="IDIPOL">     0</i>
    <i name="EPSILON">      1.00000000</i>
    <v name="DIPOL">   -100.00000000   -100.00000000   -100.00000000</v>
    <i name="EFIELD">      0.00000000</i>
   </separator>
  </separator>
  <separator name="grids" >
   <i type="int" name="NGX">    48</i>
   <i type="int" name="NGY">    48</i>
   <i type="int" name="NGZ">    48</i>
   <i type="int" name="NGXF">    96</i>
   <i type="int" name="NGYF">    96</i>
   <i type="int" name="NGZF">    96</i>
   <i type="logical" name="ADDGRID"> F  </i>
  </separator>
  <separator name="ionic" >
   <i type="int" name="NSW">     0</i>
   <i type="int" name="IBRION">    -1</i>
   <i type="int" name="MDALGO">     0</i>
   <i type="int" name="ISIF">     3</i>
   <i name="PSTRESS">      0.00000000</i>
   <i name="EDIFFG">      0.00000010</i>
   <i type="int" name="NFREE">     0</i>
   <i name="POTIM">      0.50000000</i>
   <i name="SMASS">     -3.00000000</i>
   <i name="SCALEE">      1.00000000</i>
  </separator>
  <separator name="ionic md" >
   <i name="TEBEG">      0.00010000</i>
   <i name="TEEND">      0.00010000</i>
   <i type="int" name="NBLOCK">     1</i>
   <i type="int" name="KBLOCK">     1</i>
   <i type="int" name="NPACO">   256</i>
   <i name="APACO">     16.00000000</i>
  </separator>
  <separator name="symmetry" >
   <i type="int" name="ISYM">     0</i>
   <i name="SYMPREC">      0.00001000</i>
  </separator>
  <separator name="dos" >
   <i type="int" name="LORBIT">     0</i>
   <v name="RWIGS">     -1.00000000     -1.00000000</v>
   <i type="int" name="NEDOS">   301</i>
   <i name="EMIN">     10.00000000</i>
   <i name="EMAX">    -10.00000000</i>
   <i name="EFERMI">      0.00000000</i>
  </separator>
  <separator name="writing" >
   <i type="int" name="NWRITE">     2</i>
   <i type="logical" name="LWAVE"> F  </i>
   <i type="logical" name="LDOWNSAMPLE"> F  </i>
   <i type="logical" name="LCHARG"> F  </i>
   <i type="logical" name="LPARD"> F  </i>
   <i type="logical" name="LVTOT"> F  </i>
   <i type="logical" name="LVHAR"> F  </i>
   <i type="logical" name="LELF"> F  </i>
   <i type="logical" name="LOPTICS"> F  </i>
   <v name="STM">      0.00000000      0.00000000      0.00000000      0.00000000      0.00000000      0.00000000      0.00000000</v>
  </separator>
  <separator name="performance" >
   <i type="int" name="NPAR">     8</i>
   <i type="int" name="NSIM">     4</i>
   <i type="int" name="NBLK">    -1</i>
   <i type="logical" name="LPLANE"> T  </i>
   <i type="logical" name="LSCALAPACK"> T  </i>
   <i type="logical" name="LSCAAWARE"> F  </i>
   <i type="logical" name="LSCALU"> F  </i>
   <i type="logical" name="LASYNC"> F  </i>
   <i type="logical" name="LORBITALREAL"> F  </i>
  </separator>
  <separator name="miscellaneous" >
   <i type="int" name="IDIOT">     3</i>
   <i type="int" name="PHON_NSTRUCT">    -1</i>
   <i type="logical" name="LMUSIC"> F  </i>
   <v name="POMASS">     12.01100000     28.08500000</v>
   <v name="DARWINR">      0.00000000      0.00000000</v>
   <v name="DARWINV">      1.00000000      1.00000000</v>
   <i type="logical" name="LCORR"> T  </i>
  </separator>
  <i type="logical" name="GGA_COMPAT"> T  </i>
  <i type="logical" name="LBERRY"> F  </i>
  <i type="int" name="ICORELEVEL">     0</i>
  <i type="logical" name="LDAU"> F  </i>
  <i type="int" name="I_CONSTRAINED_M">     0</i>
  <separator name="electronic exchange-correlation" >
   <i type="string" name="GGA">PE</i>
   <i type="int" name="VOSKOWN">     0</i>
   <i type="logical" name="LHFCALC"> F  </i>
   <i type="string" name="PRECFOCK"></i>
   <i type="logical" name="LSYMGRAD"> F  </i>
   <i type="logical" name="LHFONE"> F  </i>
   <i type="logical" name="LRHFCALC"> F  </i>
   <i type="logical" name="LTHOMAS"> F  </i>
   <i type="logical" name="LMODELHF"> F  </i>
   <i type="logical" name="LFOCKACE"> F  </i>
   <i name="ENCUT4O">     -1.00000000</i>
   <i type="int" name="EXXOEP">     0</i>
   <i type="int" name="FOURORBIT">     0</i>
   <i name="AEXX">      0.00000000</i>
   <i name="HFALPHA">      0.00000000</i>
   <i name="MCALPHA">      0.00000000</i>
   <i name="ALDAX">      1.00000000</i>
   <i name="AGGAX">      1.00000000</i>
   <i name="ALDAC">      1.00000000</i>
   <i name="AGGAC">      1.00000000</i>
   <i type="int" name="NKREDX">     1</i>
   <i type="int" name="NKREDY">     1</i>
   <i type="int" name="NKREDZ">     1</i>
   <i type="logical" name="SHIFTRED"> F  </i>
   <i type="logical" name="ODDONLY"> F  </i>
   <i type="logical" name="EVENONLY"> F  </i>
   <i type="int" name="LMAXFOCK">     0</i>
   <i type="int" name="NMAXFOCKAE">     0</i>
   <i type="logical" name="LFOCKAEDFT"> F  </i>
   <i name="HFSCREEN">      0.00000000</i>
   <i name="HFSCREENC">      0.00000000</i>
   <i type="int" name="NBANDSGWLOW">     0</i>
  </separator>
  <separator name="vdW DFT" >
   <i type="logical" name="LUSE_VDW"> F  </i>
   <i name="Zab_VDW">     -0.84910000</i>
   <i name="PARAM1">      0.12340000</i>
   <i name="PARAM2">      1.00000000</i>
   <i name="PARAM3">      0.00000000</i>
  </separator>
  <separator name="model GW" >
   <i type="int" name="MODEL_GW">     0</i>
   <i name="MODEL_EPS0">      6.26613487</i>
   <i name="MODEL_ALPHA">      1.00000000</i>
  </separator>
  <separator name="linear response parameters" >
   <i type="logical" name="LEPSILON"> F  </i>
   <i type="logical" name="LRPA"> F  </i>
   <i type="logical" name="LNABLA"> F  </i>
   <i type="logical" name="LVEL"> F  </i>
   <i type="int" name="KINTER">     0</i>
   <i name="CSHIFT">      0.10000000</i>
   <i name="OMEGAMAX">     -1.00000000</i>
   <i name="DEG_THRESHOLD">      0.00200000</i>
   <i name="RTIME">     -0.10000000</i>
   <i name="WPLASMAI">      0.00000000</i>
   <v name="DFIELD">      0.00000000      0.00000000      0.00000000</v>
   <v name="WPLASMA">      0.00000000      0.00000000      0.00000000      0.00000000      0.00000000      0.00000000      0.00000000      0.00000000      0.00000000</v>
  </separator>
  <separator name="orbital magnetization" >
   <i type="logical" name="NUCIND"> F  </i>
   <v name="MAGPOS">      0.00000000      0.00000000      0.00000000</v>
   <i type="logical" name="LNICSALL"> T  </i>
   <i type="logical" name="ORBITALMAG"> F  </i>
   <i type="logical" name="LMAGBLOCH"> F  </i>
   <i type="logical" name="LCHIMAG"> F  </i>
   <i type="logical" name="LGAUGE"> T  </i>
   <i type="int" name="MAGATOM">     0</i>
   <v name="MAGDIPOL">      0.00000000      0.00000000      0.00000000</v>
   <v name="AVECCONST">      0.00000000      0.00000000      0.00000000</v>
  </separator>
  <separator name="response functions" >
   <i type="logical" name="LFINITE_TEMPERATURE"> F  </i>
   <i type="logical" name="LADDER"> F  </i>
   <i type="logical" name="LRPAFORCE"> F  </i>
   <i type="logical" name="LFXC"> F  </i>
   <i type="logical" name="LHARTREE"> T  </i>
   <i type="int" name="IBSE">     0</i>
   <v type="int" name="KPOINT">    -1     0     0     0</v>
   <i type="logical" name="LTCTC"> F  </i>
   <i type="logical" name="LTCTE"> F  </i>
   <i type="logical" name="LTETE"> F  </i>
   <i type="logical" name="LTRIPLET"> F  </i>
   <i type="logical" name="LFXCEPS"> F  </i>
   <i type="logical" name="LFXHEG"> F  </i>
   <i type="int" name="NATURALO">     2</i>
   <i type="logical" name="LHOLEGF"> F  </i>
   <i type="logical" name="L2ORDER"> F  </i>
   <i type="logical" name="LDMP1"> F  </i>
   <i type="logical" name="LMP2LT"> F  </i>
   <i type="logical" name="LSMP2LT"> F  </i>
   <i type="logical" name="LGWLF"> F  </i>
   <i name="ENCUTGW">     -2.00000000</i>
   <i name="ENCUTGWSOFT">     -2.00000000</i>
   <i name="ENCUTLF">     -1.00000000</i>
   <i type="logical" name="LESF_SPLINES"> F  </i>
   <i type="int" name="LMAXMP2">    -1</i>
   <i name="SCISSOR">      0.00000000</i>
   <i type="int" name="NOMEGA">     0</i>
   <i type="int" name="NOMEGAR">     0</i>
   <i type="int" name="NBANDSGW">    -1</i>
   <i type="int" name="NBANDSO">    -1</i>
   <i type="int" name="NBANDSV">    -1</i>
   <i type="int" name="NELM">    60</i>
   <i type="int" name="NELMHF">     1</i>
   <i type="int" name="DIM">     3</i>
   <i type="int" name="IESPILON">     4</i>
   <i type="int" name="ANTIRES">     0</i>
   <i name="OMEGAMAX">    -30.00000000</i>
   <i name="OMEGAMIN">    -30.00000000</i>
   <i name="OMEGATL">   -200.00000000</i>
   <i type="int" name="OMEGAGRID">     0</i>
   <i name="CSHIFT">     -0.10000000</i>
   <i type="logical" name="LSELFENERGY"> F  </i>
   <i type="logical" name="LSPECTRAL"> F  </i>
   <i type="logical" name="LSPECTRALGW"> F  </i>
   <i type="logical" name="LSINGLES"> F  </i>
   <i type="logical" name="LFERMIGW"> F  </i>
   <i type="logical" name="ODDONLYGW"> F  </i>
   <i type="logical" name="EVENONLYGW"> F  </i>
   <i type="int" name="NKREDLFX">     1</i>
   <i type="int" name="NKREDLFY">     1</i>
   <i type="int" name="NKREDLFZ">     1</i>
   <i type="int" name="MAXMEM">  2800</i>
   <i type="int" name="TELESCOPE">     0</i>
   <i type="int" name="NTAUPAR">    -1</i>
   <i type="int" name="NOMEGAPAR">    -1</i>
   <i name="DAMP_NEWTON">      0.80000001</i>
   <i name="LAMBDA">      1.00000000</i>
  </separator>
  <separator name="External order field" >
   <i name="OFIELD_KAPPA">      0.00000000</i>
   <v name="OFIELD_K">      0.00000000      0.00000000      0.00000000</v>
   <i name="OFIELD_Q6_NEAR">      0.00000000</i>
   <i name="OFIELD_Q6_FAR">      0.00000000</i>
   <i name="OFIELD_A">      0.00000000</i>
  </separator>
 </parameters>
 <atominfo>
  <atoms>      64 </atoms>
  <types>       2 </types>
  <array name="atoms" >
   <dimension dim="1">ion</dimension>
   <field type="string">element</field>
   <field type="int">atomtype</field>
   <set>
    <rc><c>C </c><c>   1</c></rc>
    <rc><c>C </c><c>   1</c></rc>
    <rc><c>C </c><c>   1</c></rc>
    <rc><c>C </c><c>   1</c></rc>
    <rc><c>C </c><c>   1</c></rc>
    <rc><c>C </c><c>   1</c></rc>
    <rc><c>C </c><c>   1</c></rc>
    <rc><c>C </c><c>   1</c></rc>
    <rc><c>C </c><c>   1</c></rc>
    <rc><c>C </c><c>   1</c></rc>
    <rc><c>C </c><c>   1</c></rc>
    <rc><c>C </c><c>   1</c></rc>
    <rc><c>C </c><c>   1</c></rc>
    <rc><c>C </c><c>   1</c></rc>
    <rc><c>C </c><c>   1</c></rc>
    <rc><c>C </c><c>   1</c></rc>
    <rc><c>C </c><c>   1</c></rc>
    <rc><c>C </c><c>   1</c></rc>
    <rc><c>C </c><c>   1</c></rc>
    <rc><c>C </c><c>   1</c></rc>
    <rc><c>C </c><c>   1</c></rc>
    <rc><c>C </c><c>   1</c></rc>
    <rc><c>C </c><c>   1</c></rc>
    <rc><c>C </c><c>   1</c></rc>
    <rc><c>C </c><c>   1</c></rc>
    <rc><c>C </c><c>   1</c></rc>
    <rc><c>C </c><c>   1</c></rc>
    <rc><c>C </c><c>   1</c></rc>
    <rc><c>C </c><c>   1</c></rc>
    <rc><c>C </c><c>   1</c></rc>
    <rc><c>C </c><c>   1</c></rc>
    <rc><c>C </c><c>   1</c></rc>
    <rc><c>Si</c><c>   2</c></rc>
    <rc><c>Si</c><c>   2</c></rc>
    <rc><c>Si</c><c>   2</c></rc>
    <rc><c>Si</c><c>   2</c></rc>
    <rc><c>Si</c><c>   2</c></rc>
    <rc><c>Si</c><c>   2</c></rc>
    <rc><c>Si</c><c>   2</c></rc>
    <rc><c>Si</c><c>   2</c></rc>
    <rc><c>Si</c><c>   2</c></rc>
    <rc><c>Si</c><c>   2</c></rc>
    <rc><c>Si</c><c>   2</c></rc>
    <rc><c>Si</c><c>   2</c></rc>
    <rc><c>Si</c><c>   2</c></rc>
    <rc><c>Si</c><c>   2</c></rc>
    <rc><c>Si</c><c>   2</c></rc>
    <rc><c>Si</c><c>   2</c></rc>
    <rc><c>Si</c><c>   2</c></rc>
    <rc><c>Si</c><c>   2</c></rc>
    <rc><c>Si</c><c>   2</c></rc>
    <rc><c>Si</c><c>   2</c></rc>
    <rc><c>Si</c><c>   2</c></rc>
    <rc><c>Si</c><c>   2</c></rc>
    <rc><c>Si</c><c>   2</c></rc>
    <rc><c>Si</c><c>   2</c></rc>
    <rc><c>Si</c><c>   2</c></rc>
    <rc><c>Si</c><c>   2</c></rc>
    <rc><c>Si</c><c>   2</c></rc>
    <rc><c>Si</c><c>   2</c></rc>
    <rc><c>Si</c><c>   2</c></rc>
    <rc><c>Si</c><c>   2</c></rc>
    <rc><c>Si</c><c>   2</c></rc>
    <rc><c>Si</c><c>   2</c></rc>
   </set>
  </array>
  <array name="atomtypes" >
   <dimension dim="1">type</dimension>
   <field type="int">atomspertype</field>
   <field type="string">element</field>
   <field>mass</field>
   <field>valence</field>
   <field type="string">pseudopotential</field>
   <set>
    <rc><c>  32</c><c>C </c><c>     12.01100000</c><c>      4.00000000</c><c>  PAW_PBE C 08Apr2002                   </c></rc>
    <rc><c>  32</c><c>Si</c><c>     28.08500000</c><c>      4.00000000</c><c>  PAW_PBE Si 05Jan2001                  </c></rc>
   </set>
  </array>
 </atominfo>
 <structure name="initialpos" >
  <crystal>
   <varray name="basis" >
    <v>       8.74331558       0.00000000       0.00000000 </v>
    <v>       0.00000000       8.74331558       0.00000000 </v>
    <v>       0.00000000       0.00000000       8.74331558 </v>
   </varray>
   <i name="volume">    668.38771987 </i>
   <varray name="rec_basis" >
    <v>       0.11437309       0.00000000       0.00000000 </v>
    <v>       0.00000000       0.11437309       0.00000000 </v>
    <v>       0.00000000       0.00000000       0.11437309 </v>
   </varray>
  </crystal>
  <varray name="positions" >
   <v>       0.12912136       0.12946794       0.11954675 </v>
   <v>       0.12261219       0.37396578       0.37622105 </v>
   <v>       0.37676319       0.12721761       0.37616967 </v>
   <v>       0.37453619       0.37646376       0.12346451 </v>
   <v>       0.12056793       0.12406144       0.62778410 </v>
   <v>       0.13129271       0.37333073       0.87210972 </v>
   <v>       0.37574765       0.12562553       0.87459342 </v>
   <v>       0.37679242       0.37170446       0.62493343 </v>
   <v>       0.12542730       0.62445165       0.12644112 </v>
   <v>       0.12413944       0.87323271       0.37450529 </v>
   <v>       0.37585190       0.62325360       0.37392996 </v>
   <v>       0.37425693       0.87644282       0.12574020 </v>
   <v>       0.12958835       0.62863402       0.62375818 </v>
   <v>       0.12944029       0.87642388       0.87769653 </v>
   <v>       0.37675576       0.62304673       0.87644585 </v>
   <v>       0.37315330       0.87268808       0.62938991 </v>
   <v>       0.63021788       0.12781552       0.12492148 </v>
   <v>       0.62254226       0.37617472       0.37392895 </v>
   <v>       0.87493934       0.12704045       0.37771366 </v>
   <v>       0.87600404       0.37353196       0.12551416 </v>
   <v>       0.62456369       0.12671028       0.62440077 </v>
   <v>       0.62387979       0.37226022       0.87390455 </v>
   <v>       0.87786536       0.12192241       0.87355275 </v>
   <v>       0.87153328       0.36910148       0.62508677 </v>
   <v>       0.62685624       0.62587138       0.12453132 </v>
   <v>       0.62252424       0.87208005       0.37653745 </v>
   <v>       0.87980387       0.62345346       0.37627595 </v>
   <v>       0.87286990       0.87204348       0.12365843 </v>
   <v>       0.62499668       0.62746092       0.62934854 </v>
   <v>       0.62166007       0.87704855       0.87755728 </v>
   <v>       0.87322256       0.62299548       0.87504970 </v>
   <v>       0.87428042       0.87816762       0.62227950 </v>
   <v>       0.99794048       0.00317487       0.00134131 </v>
   <v>       0.99989747       0.24694860       0.24798169 </v>
   <v>       0.24870901       0.00028302       0.25206753 </v>
   <v>       0.24922639       0.24561000       0.99626133 </v>
   <v>       0.00147254       0.99762546       0.50156414 </v>
   <v>       0.00053158       0.24804117       0.74629859 </v>
   <v>       0.24792071       0.99976118       0.75305334 </v>
   <v>       0.24817000       0.25145964       0.49778707 </v>
   <v>       0.99884414       0.50232002       0.99987306 </v>
   <v>       0.99722877       0.74578485       0.25014921 </v>
   <v>       0.24841357       0.50041804       0.24986247 </v>
   <v>       0.25130530       0.74950421       0.99919189 </v>
   <v>       0.99990184       0.49740258       0.50046885 </v>
   <v>       0.99244711       0.74944951       0.74772621 </v>
   <v>       0.25245330       0.50120244       0.75184148 </v>
   <v>       0.25081081       0.75159464       0.50002074 </v>
   <v>       0.49928025       0.99855244       0.99734330 </v>
   <v>       0.50047526       0.25180677       0.25242701 </v>
   <v>       0.74704639       0.00276199       0.24777658 </v>
   <v>       0.75071641       0.25103861       0.00201376 </v>
   <v>       0.49830889       0.99958869       0.50001588 </v>
   <v>       0.49811067       0.25072996       0.75085132 </v>
   <v>       0.74522354       0.99846349       0.75137623 </v>
   <v>       0.74882066       0.25390418       0.50155621 </v>
   <v>       0.50172095       0.49979047       0.99978403 </v>
   <v>       0.50243094       0.75010998       0.24865184 </v>
   <v>       0.74698756       0.50272532       0.25060132 </v>
   <v>       0.75302984       0.74829083       0.00094008 </v>
   <v>       0.49944400       0.50089399       0.50027776 </v>
   <v>       0.49430502       0.74798232       0.75094532 </v>
   <v>       0.74520715       0.49874564       0.75523257 </v>
   <v>       0.75292977       0.75254890       0.49730935 </v>
  </varray>
 </structure>
 <calculation>
  <scstep>
   <time name="dav">   15.94   15.96</time>
   <time name="total">   16.19   16.23</time>
   <energy>
    <i name="alphaZ">    354.85177120 </i>
    <i name="ewald">  -9080.57299238 </i>
    <i name="hartreedc">   -672.26580171 </i>
    <i name="XCdc">    145.85718505 </i>
    <i name="pawpsdc">   6292.66707184 </i>
    <i name="pawaedc">  -5747.90303932 </i>
    <i name="eentropy">      0.00630977 </i>
    <i name="bandstr">   1370.53542527 </i>
    <i name="atom">   8006.17504320 </i>
    <i name="e_fr_energy">    669.35097291 </i>
    <i name="e_wo_entrp">    669.34466314 </i>
    <i name="e_0_energy">    669.34886965 </i>
   </energy>
  </scstep>
  <scstep>
   <time name="dav">   16.12   16.15</time>
   <time name="total">   16.12   16.15</time>
   <energy>
    <i name="e_fr_energy">   -463.13855705 </i>
    <i name="e_wo_entrp">   -463.14899064 </i>
    <i name="e_0_energy">   -463.14203491 </i>
   </energy>
  </scstep>
  <scstep>
   <time name="dav">   16.41   16.46</time>
   <time name="total">   16.41   16.46</time>
   <energy>
    <i name="e_fr_energy">   -537.72437900 </i>
    <i name="e_wo_entrp">   -537.74393312 </i>
    <i name="e_0_energy">   -537.73089704 </i>
   </energy>
  </scstep>
  <scstep>
   <time name="dav">   16.09   16.12</time>
   <time name="total">   16.10   16.13</time>
   <energy>
    <i name="e_fr_energy">   -539.36041778 </i>
    <i name="e_wo_entrp">   -539.38086178 </i>
    <i name="e_0_energy">   -539.36723245 </i>
   </energy>
  </scstep>
  <scstep>
   <time name="dav">   17.01   17.09</time>
   <time name="total">   17.24   17.33</time>
   <energy>
    <i name="e_fr_energy">   -539.40642115 </i>
    <i name="e_wo_entrp">   -539.42681843 </i>
    <i name="e_0_energy">   -539.41322024 </i>
   </energy>
  </scstep>
  <scstep>
   <time name="dav">   15.47   15.50</time>
   <time name="total">   15.78   15.81</time>
   <energy>
    <i name="e_fr_energy">   -482.68839474 </i>
    <i name="e_wo_entrp">   -482.69928035 </i>
    <i name="e_0_energy">   -482.69202328 </i>
   </energy>
  </scstep>
  <scstep>
   <time name="dav">   16.69   16.72</time>
   <time name="total">   17.10   17.15</time>
   <energy>
    <i name="e_fr_energy">   -481.33270489 </i>
    <i name="e_wo_entrp">   -481.34256181 </i>
    <i name="e_0_energy">   -481.33599053 </i>
   </energy>
  </scstep>
  <scstep>
   <time name="dav">   15.74   15.77</time>
   <time name="total">   16.08   16.10</time>
   <energy>
    <i name="e_fr_energy">   -481.10439193 </i>
    <i name="e_wo_entrp">   -481.11443164 </i>
    <i name="e_0_energy">   -481.10773850 </i>
   </energy>
  </scstep>
  <scstep>
   <time name="dav">   15.80   15.82</time>
   <time name="total">   16.31   16.37</time>
   <energy>
    <i name="e_fr_energy">   -481.08816656 </i>
    <i name="e_wo_entrp">   -481.09809789 </i>
    <i name="e_0_energy">   -481.09147700 </i>
   </energy>
  </scstep>
  <scstep>
   <time name="dav">   16.58   16.61</time>
   <time name="total">   16.98   17.01</time>
   <energy>
    <i name="e_fr_energy">   -481.09107543 </i>
    <i name="e_wo_entrp">   -481.10100164 </i>
    <i name="e_0_energy">   -481.09438417 </i>
   </energy>
  </scstep>
  <scstep>
   <time name="dav">   14.79   14.85</time>
   <time name="total">   15.17   15.25</time>
   <energy>
    <i name="e_fr_energy">   -481.09217606 </i>
    <i name="e_wo_entrp">   -481.10210568 </i>
    <i name="e_0_energy">   -481.09548593 </i>
   </energy>
  </scstep>
  <scstep>
   <time name="dav">   17.36   17.42</time>
   <time name="total">   17.73   17.79</time>
   <energy>
    <i name="e_fr_energy">   -481.09218797 </i>
    <i name="e_wo_entrp">   -481.10211477 </i>
    <i name="e_0_energy">   -481.09549690 </i>
   </energy>
  </scstep>
  <scstep>
   <time name="dav">   16.27   16.32</time>
   <time name="total">   16.96   17.06</time>
   <energy>
    <i name="e_fr_energy">   -481.09220045 </i>
    <i name="e_wo_entrp">   -481.10212850 </i>
    <i name="e_0_energy">   -481.09550980 </i>
   </energy>
  </scstep>
  <scstep>
   <time name="dav">   15.68   15.73</time>
   <time name="total">   16.05   16.11</time>
   <energy>
    <i name="e_fr_energy">   -481.09220651 </i>
    <i name="e_wo_entrp">   -481.10213463 </i>
    <i name="e_0_energy">   -481.09551588 </i>
   </energy>
  </scstep>
  <scstep>
   <time name="dav">   18.93   18.99</time>
   <time name="total">   19.61   19.69</time>
   <energy>
    <i name="e_fr_energy">   -481.09220834 </i>
    <i name="e_wo_entrp">   -481.10213634 </i>
    <i name="e_0_energy">   -481.09551768 </i>
   </energy>
  </scstep>
  <scstep>
   <time name="dav">   16.33   16.39</time>
   <time name="total">   16.71   16.77</time>
   <energy>
    <i name="e_fr_energy">   -481.09220812 </i>
    <i name="e_wo_entrp">   -481.10213614 </i>
    <i name="e_0_energy">   -481.09551746 </i>
   </energy>
  </scstep>
  <scstep>
   <time name="dav">   14.87   14.92</time>
   <time name="total">   15.54   15.63</time>
   <energy>
    <i name="e_fr_energy">   -481.09220835 </i>
    <i name="e_wo_entrp">   -481.10213632 </i>
    <i name="e_0_energy">   -481.09551767 </i>
   </energy>
  </scstep>
  <scstep>
   <time name="dav">    9.72    9.76</time>
   <time name="total">   10.10   10.14</time>
   <energy>
    <i name="e_fr_energy">   -481.09220837 </i>
    <i name="e_wo_entrp">   -481.10213633 </i>
    <i name="e_0_energy">   -481.09551769 </i>
   </energy>
  </scstep>
  <scstep>
   <time name="dav">   13.11   13.15</time>
   <time name="total">   13.83   13.88</time>
   <energy>
    <i name="e_fr_energy">   -481.09220834 </i>
    <i name="e_wo_entrp">   -481.10213630 </i>
    <i name="e_0_energy">   -481.09551766 </i>
   </energy>
  </scstep>
  <scstep>
   <time name="dav">    9.55    9.58</time>
   <time name="total">    9.61    9.64</time>
   <energy>
    <i name="alphaZ">    354.85177120 </i>
    <i name="ewald">  -9080.57299238 </i>
    <i name="hartreedc">  -1025.25316786 </i>
    <i name="XCdc">    179.31027112 </i>
    <i name="pawpsdc">  33067.09891859 </i>
    <i name="pawaedc"> -32528.04326366 </i>
    <i name="eentropy">      0.00992796 </i>
    <i name="bandstr">    545.33128349 </i>
    <i name="atom">   8006.17504320 </i>
    <i name="e_fr_energy">   -481.09220834 </i>
    <i name="e_wo_entrp">   -481.10213630 </i>
    <i name="e_0_energy">   -481.09551766 </i>
   </energy>
  </scstep>
  <structure>
   <crystal>
    <varray name="basis" >
     <v>       8.74331558       0.00000000       0.00000000 </v>
     <v>       0.00000000       8.74331558       0.00000000 </v>
     <v>       0.00000000       0.00000000       8.74331558 </v>
    </varray>
    <i name="volume">    668.38771987 </i>
    <varray name="rec_basis" >
     <v>       0.11437309       0.00000000       0.00000000 </v>
     <v>       0.00000000       0.11437309       0.00000000 </v>
     <v>       0.00000000       0.00000000       0.11437309 </v>
    </varray>
   </crystal>
   <varray name="positions" >
    <v>       0.12912136       0.12946794       0.11954675 </v>
    <v>       0.12261219       0.37396578       0.37622105 </v>
    <v>       0.37676319       0.12721761       0.37616967 </v>
    <v>       0.37453619       0.37646376       0.12346451 </v>
    <v>       0.12056793       0.12406144       0.62778410 </v>
    <v>       0.13129271       0.37333073       0.87210972 </v>
    <v>       0.37574765       0.12562553       0.87459342 </v>
    <v>       0.37679242       0.37170446       0.62493343 </v>
    <v>       0.12542730       0.62445165       0.12644112 </v>
    <v>       0.12413944       0.87323271       0.37450529 </v>
    <v>       0.37585190       0.62325360       0.37392996 </v>
    <v>       0.37425693       0.87644282       0.12574020 </v>
    <v>       0.12958835       0.62863402       0.62375818 </v>
    <v>       0.12944029       0.87642388       0.87769653 </v>
    <v>       0.37675576       0.62304673       0.87644585 </v>
    <v>       0.37315330       0.87268808       0.62938991 </v>
    <v>       0.63021788       0.12781552       0.12492148 </v>
    <v>       0.62254226       0.37617472       0.37392895 </v>
    <v>       0.87493934       0.12704045       0.37771366 </v>
    <v>       0.87600404       0.37353196       0.12551416 </v>
    <v>       0.62456369       0.12671028       0.62440077 </v>
    <v>       0.62387979       0.37226022       0.87390455 </v>
    <v>       0.87786536       0.12192241       0.87355275 </v>
    <v>       0.87153328       0.36910148       0.62508677 </v>
    <v>       0.62685624       0.62587138       0.12453132 </v>
    <v>       0.62252424       0.87208005       0.37653745 </v>
    <v>       0.87980387       0.62345346       0.37627595 </v>
    <v>       0.87286990       0.87204348       0.12365843 </v>
    <v>       0.62499668       0.62746092       0.62934854 </v>
    <v>       0.62166007       0.87704855       0.87755728 </v>
    <v>       0.87322256       0.62299548       0.87504970 </v>
    <v>       0.87428042       0.87816762       0.62227950 </v>
    <v>       0.99794048       0.00317487       0.00134131 </v>
    <v>       0.99989747       0.24694860       0.24798169 </v>
    <v>       0.24870901       0.00028302       0.25206753 </v>
    <v>       0.24922639       0.24561000       0.99626133 </v>
    <v>       0.00147254       0.99762546       0.50156414 </v>
    <v>       0.00053158       0.24804117       0.74629859 </v>
    <v>       0.24792071       0.99976118       0.75305334 </v>
    <v>       0.24817000       0.25145964       0.49778707 </v>
    <v>       0.99884414       0.50232002       0.99987306 </v>
    <v>       0.99722877       0.74578485       0.25014921 </v>
    <v>       0.24841357       0.50041804       0.24986247 </v>
    <v>       0.25130530       0.74950421       0.99919189 </v>
    <v>       0.99990184       0.49740258       0.50046885 </v>
    <v>       0.99244711       0.74944951       0.74772621 </v>
    <v>       0.25245330       0.50120244       0.75184148 </v>
    <v>       0.25081081       0.75159464       0.50002074 </v>
    <v>       0.49928025       0.99855244       0.99734330 </v>
    <v>       0.50047526       0.25180677       0.25242701 </v>
    <v>       0.74704639       0.00276199       0.24777658 </v>
    <v>       0.75071641       0.25103861       0.00201376 </v>
    <v>       0.49830889       0.99958869       0.50001588 </v>
    <v>       0.49811067       0.25072996       0.75085132 </v>
    <v>       0.74522354       0.99846349       0.75137623 </v>
    <v>       0.74882066       0.25390418       0.50155621 </v>
    <v>       0.50172095       0.49979047       0.99978403 </v>
    <v>       0.50243094       0.75010998       0.24865184 </v>
    <v>       0.74698756       0.50272532       0.25060132 </v>
    <v>       0.75302984       0.74829083       0.00094008 </v>
    <v>       0.49944400       0.50089399       0.50027776 </v>
    <v>       0.49430502       0.74798232       0.75094532 </v>
    <v>       0.74520715       0.49874564       0.75523257 </v>
    <v>       0.75292977       0.75254890       0.49730935 </v>
   </varray>
  </structure>
  <varray name="forces" >
   <v>      -1.01400077      -1.13392861       1.33094853 </v>
   <v>       0.24877470       0.01996809      -0.52616644 </v>
   <v>      -0.55119283      -0.47957527      -0.17435923 </v>
   <v>      -0.00483780      -0.46680565       0.17901693 </v>
   <v>       1.24118270      -0.25022407      -0.86070828 </v>
   <v>      -1.42589943       0.35093516       0.13500164 </v>
   <v>       0.00274723      -0.38668862      -0.10458880 </v>
   <v>      -0.48124788       0.82135629      -0.10754191 </v>
   <v>      -0.21821491       0.20503524      -0.43737737 </v>
   <v>      -0.05815160       0.25738803      -0.05287590 </v>
   <v>      -0.13422388       0.49319322       0.06265824 </v>
   <v>       0.26522290      -0.23090110       0.00340623 </v>
   <v>      -1.12329994      -0.81144181       0.43694421 </v>
   <v>      -1.47642780      -0.51454184      -0.15415197 </v>
   <v>      -0.18289562       0.17860152       0.15871787 </v>
   <v>      -0.04843281       0.72766932      -0.75487397 </v>
   <v>      -1.43840740      -0.27219002      -0.07190449 </v>
   <v>       0.51807915       0.32713657       0.42712083 </v>
   <v>      -0.02044167      -0.60163753      -0.53378264 </v>
   <v>      -0.25510472       0.68139454      -0.05617216 </v>
   <v>      -0.23689727      -0.29830388       0.14176562 </v>
   <v>       0.00333326       0.22256010       0.71592068 </v>
   <v>      -0.83427036       0.61662190       0.16110421 </v>
   <v>       0.48347441       1.62902057       0.53921511 </v>
   <v>      -0.11969006      -0.06531175      -0.15598041 </v>
   <v>       0.39665226       0.69260969      -0.46857023 </v>
   <v>      -1.16017780      -0.03754801      -0.01505612 </v>
   <v>       0.45857291       0.63248610       0.57229181 </v>
   <v>       0.08958021      -0.24949219      -0.70680993 </v>
   <v>       0.48217855      -1.09137255      -0.47813091 </v>
   <v>       0.06452984       0.17863799      -0.07748249 </v>
   <v>      -0.41931345      -0.54736334       0.57750227 </v>
   <v>       0.70403820      -0.85021080      -0.19073549 </v>
   <v>       0.09738114       0.45791011       0.35623898 </v>
   <v>       0.24382027       0.20373506      -0.50568627 </v>
   <v>       0.88538455       1.36518383       0.19908740 </v>
   <v>      -0.30511601       0.68856144      -0.43412880 </v>
   <v>      -0.24423283       0.35453605       0.92205446 </v>
   <v>       0.25647527       0.16835279      -0.45362978 </v>
   <v>       0.11524231      -0.41116547       0.77442198 </v>
   <v>       0.77656826      -0.96089510      -0.04186925 </v>
   <v>       0.68415127       0.77604710      -0.24066303 </v>
   <v>       0.27802539      -0.38901582       0.06266778 </v>
   <v>      -0.17213442       0.04527335       0.45679074 </v>
   <v>       0.19712908       0.13366793       0.60518238 </v>
   <v>       1.62188937       0.33609936       0.25512817 </v>
   <v>      -0.11046986      -0.30320593      -0.66087971 </v>
   <v>       0.18991206      -0.24946704      -0.26534540 </v>
   <v>       0.01409004       0.76403658       0.93926426 </v>
   <v>      -0.15656287      -0.06854617      -0.88180307 </v>
   <v>       0.62846702      -0.58484611       0.81696894 </v>
   <v>       0.40245790      -0.26783391      -0.74263045 </v>
   <v>       0.15560391      -0.04434195       0.56576033 </v>
   <v>       0.27811220      -0.48681519      -0.37367882 </v>
   <v>       0.53726386       0.51946068      -0.31697127 </v>
   <v>      -0.29019826      -0.88444052      -0.58560806 </v>
   <v>      -0.22660238      -0.27498238       0.25573682 </v>
   <v>      -0.71348531      -0.07998463       0.13318181 </v>
   <v>       0.76354423      -0.69161614       0.06034909 </v>
   <v>      -0.90214953       0.46549409      -0.41790263 </v>
   <v>       0.11184528      -0.03895739       0.28282419 </v>
   <v>       1.04556259       0.43529039       0.19728427 </v>
   <v>       0.57667567      -0.13675226      -1.11929216 </v>
   <v>      -0.49388851      -0.58786004       0.64280166 </v>
  </varray>
  <varray name="stress" >
   <v>       3.50702377       0.09384090       0.54491876 </v>
   <v>       0.09384090       3.78961070      -6.84447412 </v>
   <v>       0.54491874      -6.84447409       4.37299149 </v>
  </varray>
  <energy>
   <i name="e_fr_energy">   -481.09220834 </i>
   <i name="e_wo_entrp">   -481.10213630 </i>
   <i name="e_0_energy">   -481.09551766 </i>
  </energy>
  <time name="totalsc">  327.32  328.44</time>
  <eigenvalues>
   <array>
    <dimension dim="1">band</dimension>
    <dimension dim="2">kpoint</dimension>
    <dimension dim="3">spin</dimension>
    <field>eigene</field>
    <field>occ</field>
    <set>
     <set comment="spin 1">
      <set comment="kpoint 1">
       <r>   -7.3408    1.0000 </r>
       <r>   -5.8367    1.0000 </r>
       <r>   -5.8130    1.0000 </r>
       <r>   -5.7554    1.0000 </r>
       <r>   -5.7373    1.0000 </r>
       <r>   -5.7156    1.0000 </r>
       <r>   -5.6959    1.0000 </r>
       <r>   -4.4958    1.0000 </r>
       <r>   -4.4358    1.0000 </r>
       <r>   -4.4267    1.0000 </r>
       <r>   -4.4037    1.0000 </r>
       <r>   -4.3592    1.0000 </r>
       <r>   -4.3307    1.0000 </r>
       <r>   -4.3185    1.0000 </r>
       <r>   -4.3107    1.0000 </r>
       <r>   -4.2958    1.0000 </r>
       <r>   -4.2717    1.0000 </r>
       <r>   -4.2609    1.0000 </r>
       <r>   -4.2273    1.0000 </r>
       <r>   -3.8333    1.0000 </r>
       <r>   -3.7969    1.0000 </r>
       <r>   -3.7617    1.0000 </r>
       <r>   -3.7535    1.0000 </r>
       <r>   -2.4127    1.0000 </r>
       <r>   -2.3782    1.0000 </r>
       <r>   -2.3532    1.0000 </r>
       <r>   -2.2043    1.0000 </r>
       <r>   -2.1698    1.0000 </r>
       <r>   -2.1209    1.0000 </r>
       <r>   -2.1080    1.0000 </r>
       <r>   -2.0907    1.0000 </r>
       <r>   -2.0540    1.0000 </r>
       <r>   -0.5260    1.0000 </r>
       <r>   -0.5157    1.0000 </r>
       <r>   -0.4678    1.0000 </r>
       <r>   -0.4368    1.0000 </r>
       <r>    0.2150    1.0000 </r>
       <r>    0.2275    1.0000 </r>
       <r>    0.2458    1.0000 </r>
       <r>    0.9458    1.0000 </r>
       <r>    0.9540    1.0000 </r>
       <r>    0.9765    1.0000 </r>
       <r>    0.9964    1.0000 </r>
       <r>    1.0220    1.0000 </r>
       <r>    1.0307    1.0000 </r>
       <r>    1.9741    1.0000 </r>
       <r>    1.9839    1.0000 </r>
       <r>    2.0123    1.0000 </r>
       <r>    2.0449    1.0000 </r>
       <r>    2.0551    1.0000 </r>
       <r>    2.0679    1.0000 </r>
       <r>    2.0862    1.0000 </r>
       <r>    2.0870    1.0000 </r>
       <r>    2.1143    1.0000 </r>
       <r>    2.1223    1.0000 </r>
       <r>    2.1496    1.0000 </r>
       <r>    2.1929    1.0000 </r>
       <r>    2.9958    1.0000 </r>
       <r>    3.0180    1.0000 </r>
       <r>    3.0287    1.0000 </r>
       <r>    3.0457    1.0000 </r>
       <r>    3.0806    1.0000 </r>
       <r>    3.1028    1.0000 </r>
       <r>    3.2970    1.0000 </r>
       <r>    3.3246    1.0000 </r>
       <r>    3.3434    1.0000 </r>
       <r>    3.3548    1.0000 </r>
       <r>    3.3745    1.0000 </r>
       <r>    3.4033    1.0000 </r>
       <r>    3.6108    1.0000 </r>
       <r>    3.6174    1.0000 </r>
       <r>    3.6338    1.0000 </r>
       <r>    3.6534    1.0000 </r>
       <r>    3.6656    1.0000 </r>
       <r>    3.6767    1.0000 </r>
       <r>    3.7042    1.0000 </r>
       <r>    3.7081    1.0000 </r>
       <r>    3.7341    1.0000 </r>
       <r>    3.7387    1.0000 </r>
       <r>    3.7649    1.0000 </r>
       <r>    3.7888    1.0000 </r>
       <r>    4.5375    1.0000 </r>
       <r>    4.5995    1.0000 </r>
       <r>    4.6235    1.0000 </r>
       <r>    4.6456    1.0000 </r>
       <r>    4.6759    1.0000 </r>
       <r>    4.7064    1.0000 </r>
       <r>    4.8165    1.0000 </r>
       <r>    4.8356    1.0000 </r>
       <r>    4.8500    1.0000 </r>
       <r>    4.8648    1.0000 </r>
       <r>    4.8705    1.0000 </r>
       <r>    4.8946    1.0000 </r>
       <r>    5.9645    1.0000 </r>
       <r>    6.0012    1.0000 </r>
       <r>    6.0150    1.0000 </r>
       <r>    6.0289    1.0000 </r>
       <r>    6.0511    1.0000 </r>
       <r>    6.0731    1.0000 </r>
       <r>    6.0916    1.0000 </r>
       <r>    6.1033    1.0000 </r>
       <r>    6.1298    1.0000 </r>
       <r>    6.1345    1.0000 </r>
       <r>    6.1476    1.0000 </r>
       <r>    6.1663    1.0000 </r>
       <r>    6.7225    1.0000 </r>
       <r>    6.7352    1.0000 </r>
       <r>    6.7453    1.0000 </r>
       <r>    6.7624    1.0000 </r>
       <r>    6.7758    1.0000 </r>
       <r>    6.7899    1.0000 </r>
       <r>    6.8041    1.0000 </r>
       <r>    6.8230    1.0000 </r>
       <r>    6.8520    1.0000 </r>
       <r>    6.8772    1.0000 </r>
       <r>    6.8888    1.0000 </r>
       <r>    6.8937    1.0000 </r>
       <r>    6.9297    1.0000 </r>
       <r>    6.9313    1.0000 </r>
       <r>    6.9618    1.0000 </r>
       <r>    6.9859    1.0000 </r>
       <r>    7.0023    1.0000 </r>
       <r>    7.0252    1.0000 </r>
       <r>    7.0660    1.0000 </r>
       <r>    7.0913    1.0000 </r>
       <r>    7.9583    1.0273 </r>
       <r>    8.0259    0.9544 </r>
       <r>    8.0786    0.8239 </r>
       <r>    9.3301   -0.0000 </r>
       <r>    9.3421   -0.0000 </r>
       <r>    9.4146   -0.0000 </r>
       <r>   11.9100   -0.0000 </r>
       <r>   11.9730   -0.0000 </r>
       <r>   11.9995   -0.0000 </r>
       <r>   12.0267   -0.0000 </r>
       <r>   12.0597   -0.0000 </r>
       <r>   12.0987   -0.0000 </r>
       <r>   12.2425   -0.0000 </r>
       <r>   12.2814   -0.0000 </r>
       <r>   12.3155   -0.0000 </r>
       <r>   13.0506   -0.0000 </r>
       <r>   13.0810   -0.0000 </r>
       <r>   13.1583   -0.0000 </r>
       <r>   13.1840   -0.0000 </r>
       <r>   13.1949   -0.0000 </r>
       <r>   13.2385   -0.0000 </r>
       <r>   13.3013   -0.0000 </r>
       <r>   13.3032   -0.0000 </r>
       <r>   13.3199   -0.0000 </r>
       <r>   13.3506   -0.0000 </r>
       <r>   13.3833   -0.0000 </r>
       <r>   13.4103   -0.0000 </r>
       <r>   13.4483   -0.0000 </r>
       <r>   13.4552   -0.0000 </r>
       <r>   13.4762   -0.0000 </r>
       <r>   13.5011   -0.0000 </r>
       <r>   13.5242   -0.0000 </r>
       <r>   13.5378   -0.0000 </r>
       <r>   13.5519   -0.0000 </r>
       <r>   13.5592   -0.0000 </r>
       <r>   13.6031   -0.0000 </r>
       <r>   13.6201   -0.0000 </r>
       <r>   14.0935    0.0000 </r>
       <r>   14.1999    0.0000 </r>
       <r>   14.2574    0.0000 </r>
       <r>   14.2860    0.0000 </r>
       <r>   14.3122    0.0000 </r>
       <r>   14.3188    0.0000 </r>
      </set>
      <set comment="kpoint 2">
       <r>   -7.1621    1.0000 </r>
       <r>   -6.6285    1.0000 </r>
       <r>   -5.6332    1.0000 </r>
       <r>   -5.6229    1.0000 </r>
       <r>   -5.5770    1.0000 </r>
       <r>   -5.5547    1.0000 </r>
       <r>   -5.1470    1.0000 </r>
       <r>   -5.1361    1.0000 </r>
       <r>   -5.0906    1.0000 </r>
       <r>   -5.0644    1.0000 </r>
       <r>   -4.5799    1.0000 </r>
       <r>   -4.2846    1.0000 </r>
       <r>   -4.2626    1.0000 </r>
       <r>   -4.2346    1.0000 </r>
       <r>   -4.1699    1.0000 </r>
       <r>   -4.0236    1.0000 </r>
       <r>   -3.9739    1.0000 </r>
       <r>   -3.9451    1.0000 </r>
       <r>   -3.9081    1.0000 </r>
       <r>   -3.4322    1.0000 </r>
       <r>   -3.4097    1.0000 </r>
       <r>   -3.3719    1.0000 </r>
       <r>   -3.3553    1.0000 </r>
       <r>   -3.2210    1.0000 </r>
       <r>   -2.5754    1.0000 </r>
       <r>   -2.5357    1.0000 </r>
       <r>   -2.4992    1.0000 </r>
       <r>   -2.4900    1.0000 </r>
       <r>   -2.2990    1.0000 </r>
       <r>   -2.2848    1.0000 </r>
       <r>   -2.1889    1.0000 </r>
       <r>   -2.1669    1.0000 </r>
       <r>   -0.0629    1.0000 </r>
       <r>   -0.0525    1.0000 </r>
       <r>   -0.0227    1.0000 </r>
       <r>    0.0439    1.0000 </r>
       <r>    0.3655    1.0000 </r>
       <r>    0.3665    1.0000 </r>
       <r>    0.7187    1.0000 </r>
       <r>    0.7296    1.0000 </r>
       <r>    1.0019    1.0000 </r>
       <r>    1.0270    1.0000 </r>
       <r>    1.0379    1.0000 </r>
       <r>    1.0583    1.0000 </r>
       <r>    1.0697    1.0000 </r>
       <r>    1.1031    1.0000 </r>
       <r>    1.1185    1.0000 </r>
       <r>    1.1892    1.0000 </r>
       <r>    1.2376    1.0000 </r>
       <r>    1.3836    1.0000 </r>
       <r>    1.4107    1.0000 </r>
       <r>    1.4293    1.0000 </r>
       <r>    1.4476    1.0000 </r>
       <r>    2.6857    1.0000 </r>
       <r>    2.6973    1.0000 </r>
       <r>    2.7126    1.0000 </r>
       <r>    2.7238    1.0000 </r>
       <r>    2.9086    1.0000 </r>
       <r>    2.9253    1.0000 </r>
       <r>    2.9488    1.0000 </r>
       <r>    2.9704    1.0000 </r>
       <r>    2.9831    1.0000 </r>
       <r>    3.0119    1.0000 </r>
       <r>    3.0264    1.0000 </r>
       <r>    3.0425    1.0000 </r>
       <r>    3.0668    1.0000 </r>
       <r>    3.5203    1.0000 </r>
       <r>    3.5316    1.0000 </r>
       <r>    3.6488    1.0000 </r>
       <r>    3.6535    1.0000 </r>
       <r>    3.9664    1.0000 </r>
       <r>    4.0235    1.0000 </r>
       <r>    4.0412    1.0000 </r>
       <r>    4.0641    1.0000 </r>
       <r>    4.3361    1.0000 </r>
       <r>    4.3474    1.0000 </r>
       <r>    4.3801    1.0000 </r>
       <r>    4.3901    1.0000 </r>
       <r>    4.4236    1.0000 </r>
       <r>    4.4629    1.0000 </r>
       <r>    4.4724    1.0000 </r>
       <r>    4.4849    1.0000 </r>
       <r>    4.6055    1.0000 </r>
       <r>    4.6260    1.0000 </r>
       <r>    4.6509    1.0000 </r>
       <r>    4.6845    1.0000 </r>
       <r>    4.7794    1.0000 </r>
       <r>    4.8020    1.0000 </r>
       <r>    4.8274    1.0000 </r>
       <r>    4.8931    1.0000 </r>
       <r>    4.9555    1.0000 </r>
       <r>    5.0133    1.0000 </r>
       <r>    5.3779    1.0000 </r>
       <r>    5.4307    1.0000 </r>
       <r>    5.5825    1.0000 </r>
       <r>    5.5938    1.0000 </r>
       <r>    5.6348    1.0000 </r>
       <r>    5.6650    1.0000 </r>
       <r>    5.8507    1.0000 </r>
       <r>    5.8929    1.0000 </r>
       <r>    5.9012    1.0000 </r>
       <r>    5.9149    1.0000 </r>
       <r>    6.1954    1.0000 </r>
       <r>    6.2221    1.0000 </r>
       <r>    6.2547    1.0000 </r>
       <r>    6.2873    1.0000 </r>
       <r>    6.3425    1.0000 </r>
       <r>    6.4530    1.0000 </r>
       <r>    6.4837    1.0000 </r>
       <r>    6.5057    1.0000 </r>
       <r>    6.5196    1.0000 </r>
       <r>    6.7658    1.0000 </r>
       <r>    6.8029    1.0000 </r>
       <r>    6.8275    1.0000 </r>
       <r>    6.8385    1.0000 </r>
       <r>    6.8555    1.0000 </r>
       <r>    6.8720    1.0000 </r>
       <r>    6.8923    1.0000 </r>
       <r>    6.9129    1.0000 </r>
       <r>    6.9314    1.0000 </r>
       <r>    6.9408    1.0000 </r>
       <r>    6.9576    1.0000 </r>
       <r>    6.9909    1.0000 </r>
       <r>    7.0179    1.0000 </r>
       <r>    7.0836    1.0000 </r>
       <r>    7.4764    1.0000 </r>
       <r>    7.6262    1.0005 </r>
       <r>    7.7367    1.0051 </r>
       <r>    9.6826   -0.0000 </r>
       <r>   10.1841   -0.0000 </r>
       <r>   10.2216   -0.0000 </r>
       <r>   10.6271   -0.0000 </r>
       <r>   11.9487   -0.0000 </r>
       <r>   11.9813   -0.0000 </r>
       <r>   12.4785   -0.0000 </r>
       <r>   12.5986   -0.0000 </r>
       <r>   12.6329   -0.0000 </r>
       <r>   12.6625   -0.0000 </r>
       <r>   12.6982   -0.0000 </r>
       <r>   12.8995   -0.0000 </r>
       <r>   12.9379   -0.0000 </r>
       <r>   12.9626   -0.0000 </r>
       <r>   12.9949   -0.0000 </r>
       <r>   13.0181   -0.0000 </r>
       <r>   13.0493   -0.0000 </r>
       <r>   13.0781   -0.0000 </r>
       <r>   13.1034   -0.0000 </r>
       <r>   13.1495   -0.0000 </r>
       <r>   13.1722   -0.0000 </r>
       <r>   13.1965   -0.0000 </r>
       <r>   13.4984   -0.0000 </r>
       <r>   13.5762   -0.0000 </r>
       <r>   13.6102   -0.0000 </r>
       <r>   13.6354    0.0000 </r>
       <r>   13.6527    0.0000 </r>
       <r>   13.6731    0.0000 </r>
       <r>   13.6986    0.0000 </r>
       <r>   13.7239    0.0000 </r>
       <r>   13.7411    0.0000 </r>
       <r>   13.9098    0.0000 </r>
       <r>   13.9741    0.0000 </r>
       <r>   13.9855    0.0000 </r>
       <r>   14.0205    0.0000 </r>
       <r>   14.4729    0.0000 </r>
       <r>   14.7746    0.0000 </r>
       <r>   14.8314    0.0000 </r>
       <r>   14.8377    0.0000 </r>
       <r>   14.8903    0.0000 </r>
      </set>
      <set comment="kpoint 3">
       <r>   -7.1620    1.0000 </r>
       <r>   -6.6282    1.0000 </r>
       <r>   -5.6514    1.0000 </r>
       <r>   -5.6215    1.0000 </r>
       <r>   -5.5642    1.0000 </r>
       <r>   -5.5508    1.0000 </r>
       <r>   -5.1562    1.0000 </r>
       <r>   -5.1295    1.0000 </r>
       <r>   -5.0828    1.0000 </r>
       <r>   -5.0699    1.0000 </r>
       <r>   -4.5812    1.0000 </r>
       <r>   -4.3024    1.0000 </r>
       <r>   -4.2360    1.0000 </r>
       <r>   -4.2210    1.0000 </r>
       <r>   -4.1974    1.0000 </r>
       <r>   -3.9923    1.0000 </r>
       <r>   -3.9720    1.0000 </r>
       <r>   -3.9529    1.0000 </r>
       <r>   -3.9220    1.0000 </r>
       <r>   -3.4441    1.0000 </r>
       <r>   -3.4141    1.0000 </r>
       <r>   -3.3734    1.0000 </r>
       <r>   -3.3424    1.0000 </r>
       <r>   -3.2243    1.0000 </r>
       <r>   -2.5638    1.0000 </r>
       <r>   -2.5328    1.0000 </r>
       <r>   -2.5279    1.0000 </r>
       <r>   -2.4754    1.0000 </r>
       <r>   -2.3143    1.0000 </r>
       <r>   -2.2736    1.0000 </r>
       <r>   -2.1799    1.0000 </r>
       <r>   -2.1693    1.0000 </r>
       <r>   -0.0625    1.0000 </r>
       <r>   -0.0516    1.0000 </r>
       <r>   -0.0077    1.0000 </r>
       <r>    0.0249    1.0000 </r>
       <r>    0.3542    1.0000 </r>
       <r>    0.3829    1.0000 </r>
       <r>    0.6992    1.0000 </r>
       <r>    0.7468    1.0000 </r>
       <r>    0.9912    1.0000 </r>
       <r>    1.0191    1.0000 </r>
       <r>    1.0407    1.0000 </r>
       <r>    1.0717    1.0000 </r>
       <r>    1.0826    1.0000 </r>
       <r>    1.1150    1.0000 </r>
       <r>    1.1408    1.0000 </r>
       <r>    1.1596    1.0000 </r>
       <r>    1.2355    1.0000 </r>
       <r>    1.3684    1.0000 </r>
       <r>    1.4064    1.0000 </r>
       <r>    1.4176    1.0000 </r>
       <r>    1.4624    1.0000 </r>
       <r>    2.6822    1.0000 </r>
       <r>    2.6912    1.0000 </r>
       <r>    2.7189    1.0000 </r>
       <r>    2.7329    1.0000 </r>
       <r>    2.8966    1.0000 </r>
       <r>    2.9304    1.0000 </r>
       <r>    2.9537    1.0000 </r>
       <r>    2.9696    1.0000 </r>
       <r>    2.9847    1.0000 </r>
       <r>    3.0008    1.0000 </r>
       <r>    3.0251    1.0000 </r>
       <r>    3.0478    1.0000 </r>
       <r>    3.0724    1.0000 </r>
       <r>    3.5213    1.0000 </r>
       <r>    3.5316    1.0000 </r>
       <r>    3.6505    1.0000 </r>
       <r>    3.6549    1.0000 </r>
       <r>    3.9778    1.0000 </r>
       <r>    4.0150    1.0000 </r>
       <r>    4.0303    1.0000 </r>
       <r>    4.0721    1.0000 </r>
       <r>    4.3388    1.0000 </r>
       <r>    4.3540    1.0000 </r>
       <r>    4.3739    1.0000 </r>
       <r>    4.3963    1.0000 </r>
       <r>    4.4148    1.0000 </r>
       <r>    4.4386    1.0000 </r>
       <r>    4.4655    1.0000 </r>
       <r>    4.4996    1.0000 </r>
       <r>    4.6206    1.0000 </r>
       <r>    4.6242    1.0000 </r>
       <r>    4.6539    1.0000 </r>
       <r>    4.6741    1.0000 </r>
       <r>    4.7848    1.0000 </r>
       <r>    4.8004    1.0000 </r>
       <r>    4.8456    1.0000 </r>
       <r>    4.8793    1.0000 </r>
       <r>    4.9757    1.0000 </r>
       <r>    4.9921    1.0000 </r>
       <r>    5.4007    1.0000 </r>
       <r>    5.4133    1.0000 </r>
       <r>    5.5820    1.0000 </r>
       <r>    5.6077    1.0000 </r>
       <r>    5.6268    1.0000 </r>
       <r>    5.6621    1.0000 </r>
       <r>    5.8333    1.0000 </r>
       <r>    5.8770    1.0000 </r>
       <r>    5.9006    1.0000 </r>
       <r>    5.9395    1.0000 </r>
       <r>    6.1692    1.0000 </r>
       <r>    6.2305    1.0000 </r>
       <r>    6.2526    1.0000 </r>
       <r>    6.3083    1.0000 </r>
       <r>    6.3381    1.0000 </r>
       <r>    6.4396    1.0000 </r>
       <r>    6.4812    1.0000 </r>
       <r>    6.4993    1.0000 </r>
       <r>    6.5308    1.0000 </r>
       <r>    6.7866    1.0000 </r>
       <r>    6.7935    1.0000 </r>
       <r>    6.8250    1.0000 </r>
       <r>    6.8523    1.0000 </r>
       <r>    6.8592    1.0000 </r>
       <r>    6.8738    1.0000 </r>
       <r>    6.8935    1.0000 </r>
       <r>    6.8994    1.0000 </r>
       <r>    6.9260    1.0000 </r>
       <r>    6.9450    1.0000 </r>
       <r>    6.9700    1.0000 </r>
       <r>    6.9934    1.0000 </r>
       <r>    7.0156    1.0000 </r>
       <r>    7.0733    1.0000 </r>
       <r>    7.4591    1.0000 </r>
       <r>    7.6814    1.0017 </r>
       <r>    7.6992    1.0025 </r>
       <r>    9.6808   -0.0000 </r>
       <r>   10.1751   -0.0000 </r>
       <r>   10.2277   -0.0000 </r>
       <r>   10.6284   -0.0000 </r>
       <r>   11.9424   -0.0000 </r>
       <r>   11.9911   -0.0000 </r>
       <r>   12.4739   -0.0000 </r>
       <r>   12.5753   -0.0000 </r>
       <r>   12.6247   -0.0000 </r>
       <r>   12.6623   -0.0000 </r>
       <r>   12.7246   -0.0000 </r>
       <r>   12.9102   -0.0000 </r>
       <r>   12.9374   -0.0000 </r>
       <r>   12.9603   -0.0000 </r>
       <r>   13.0078   -0.0000 </r>
       <r>   13.0198   -0.0000 </r>
       <r>   13.0514   -0.0000 </r>
       <r>   13.0742   -0.0000 </r>
       <r>   13.0955   -0.0000 </r>
       <r>   13.1319   -0.0000 </r>
       <r>   13.1545   -0.0000 </r>
       <r>   13.2212   -0.0000 </r>
       <r>   13.4874   -0.0000 </r>
       <r>   13.5930   -0.0000 </r>
       <r>   13.6010   -0.0000 </r>
       <r>   13.6536    0.0000 </r>
       <r>   13.6617    0.0000 </r>
       <r>   13.6758    0.0000 </r>
       <r>   13.6876    0.0000 </r>
       <r>   13.7186    0.0000 </r>
       <r>   13.7301    0.0000 </r>
       <r>   13.9207    0.0000 </r>
       <r>   13.9407    0.0000 </r>
       <r>   13.9796    0.0000 </r>
       <r>   14.0552    0.0000 </r>
       <r>   14.4711    0.0000 </r>
       <r>   14.7820    0.0000 </r>
       <r>   14.8333    0.0000 </r>
       <r>   14.8636    0.0000 </r>
       <r>   14.8788    0.0000 </r>
      </set>
      <set comment="kpoint 4">
       <r>   -7.1619    1.0000 </r>
       <r>   -6.6285    1.0000 </r>
       <r>   -5.6619    1.0000 </r>
       <r>   -5.6033    1.0000 </r>
       <r>   -5.5879    1.0000 </r>
       <r>   -5.5367    1.0000 </r>
       <r>   -5.1617    1.0000 </r>
       <r>   -5.1157    1.0000 </r>
       <r>   -5.0989    1.0000 </r>
       <r>   -5.0459    1.0000 </r>
       <r>   -4.5905    1.0000 </r>
       <r>   -4.3042    1.0000 </r>
       <r>   -4.2534    1.0000 </r>
       <r>   -4.2246    1.0000 </r>
       <r>   -4.2074    1.0000 </r>
       <r>   -4.0003    1.0000 </r>
       <r>   -3.9626    1.0000 </r>
       <r>   -3.9309    1.0000 </r>
       <r>   -3.9173    1.0000 </r>
       <r>   -3.4593    1.0000 </r>
       <r>   -3.3932    1.0000 </r>
       <r>   -3.3739    1.0000 </r>
       <r>   -3.3394    1.0000 </r>
       <r>   -3.2331    1.0000 </r>
       <r>   -2.5864    1.0000 </r>
       <r>   -2.5293    1.0000 </r>
       <r>   -2.4936    1.0000 </r>
       <r>   -2.4712    1.0000 </r>
       <r>   -2.3062    1.0000 </r>
       <r>   -2.2806    1.0000 </r>
       <r>   -2.2070    1.0000 </r>
       <r>   -2.1623    1.0000 </r>
       <r>   -0.0653    1.0000 </r>
       <r>   -0.0535    1.0000 </r>
       <r>   -0.0024    1.0000 </r>
       <r>    0.0243    1.0000 </r>
       <r>    0.3606    1.0000 </r>
       <r>    0.3720    1.0000 </r>
       <r>    0.7167    1.0000 </r>
       <r>    0.7354    1.0000 </r>
       <r>    0.9899    1.0000 </r>
       <r>    1.0231    1.0000 </r>
       <r>    1.0432    1.0000 </r>
       <r>    1.0691    1.0000 </r>
       <r>    1.0854    1.0000 </r>
       <r>    1.1205    1.0000 </r>
       <r>    1.1331    1.0000 </r>
       <r>    1.1550    1.0000 </r>
       <r>    1.2418    1.0000 </r>
       <r>    1.3513    1.0000 </r>
       <r>    1.4058    1.0000 </r>
       <r>    1.4237    1.0000 </r>
       <r>    1.4679    1.0000 </r>
       <r>    2.6795    1.0000 </r>
       <r>    2.6936    1.0000 </r>
       <r>    2.7137    1.0000 </r>
       <r>    2.7368    1.0000 </r>
       <r>    2.8966    1.0000 </r>
       <r>    2.9191    1.0000 </r>
       <r>    2.9501    1.0000 </r>
       <r>    2.9653    1.0000 </r>
       <r>    2.9908    1.0000 </r>
       <r>    3.0046    1.0000 </r>
       <r>    3.0260    1.0000 </r>
       <r>    3.0564    1.0000 </r>
       <r>    3.0807    1.0000 </r>
       <r>    3.5219    1.0000 </r>
       <r>    3.5249    1.0000 </r>
       <r>    3.6443    1.0000 </r>
       <r>    3.6593    1.0000 </r>
       <r>    3.9550    1.0000 </r>
       <r>    4.0202    1.0000 </r>
       <r>    4.0350    1.0000 </r>
       <r>    4.0912    1.0000 </r>
       <r>    4.3347    1.0000 </r>
       <r>    4.3446    1.0000 </r>
       <r>    4.3767    1.0000 </r>
       <r>    4.3911    1.0000 </r>
       <r>    4.4138    1.0000 </r>
       <r>    4.4412    1.0000 </r>
       <r>    4.4637    1.0000 </r>
       <r>    4.5063    1.0000 </r>
       <r>    4.6213    1.0000 </r>
       <r>    4.6312    1.0000 </r>
       <r>    4.6448    1.0000 </r>
       <r>    4.6842    1.0000 </r>
       <r>    4.7859    1.0000 </r>
       <r>    4.7980    1.0000 </r>
       <r>    4.8383    1.0000 </r>
       <r>    4.8767    1.0000 </r>
       <r>    4.9884    1.0000 </r>
       <r>    4.9930    1.0000 </r>
       <r>    5.3995    1.0000 </r>
       <r>    5.4142    1.0000 </r>
       <r>    5.5971    1.0000 </r>
       <r>    5.6004    1.0000 </r>
       <r>    5.6209    1.0000 </r>
       <r>    5.6458    1.0000 </r>
       <r>    5.8382    1.0000 </r>
       <r>    5.8813    1.0000 </r>
       <r>    5.8993    1.0000 </r>
       <r>    5.9490    1.0000 </r>
       <r>    6.1824    1.0000 </r>
       <r>    6.2392    1.0000 </r>
       <r>    6.2586    1.0000 </r>
       <r>    6.2964    1.0000 </r>
       <r>    6.3259    1.0000 </r>
       <r>    6.4057    1.0000 </r>
       <r>    6.4810    1.0000 </r>
       <r>    6.4925    1.0000 </r>
       <r>    6.5376    1.0000 </r>
       <r>    6.7798    1.0000 </r>
       <r>    6.8007    1.0000 </r>
       <r>    6.8112    1.0000 </r>
       <r>    6.8405    1.0000 </r>
       <r>    6.8528    1.0000 </r>
       <r>    6.8793    1.0000 </r>
       <r>    6.8860    1.0000 </r>
       <r>    6.9400    1.0000 </r>
       <r>    6.9529    1.0000 </r>
       <r>    6.9612    1.0000 </r>
       <r>    6.9758    1.0000 </r>
       <r>    6.9950    1.0000 </r>
       <r>    7.0044    1.0000 </r>
       <r>    7.0484    1.0000 </r>
       <r>    7.4587    1.0000 </r>
       <r>    7.6822    1.0018 </r>
       <r>    7.6998    1.0025 </r>
       <r>    9.6767   -0.0000 </r>
       <r>   10.1787   -0.0000 </r>
       <r>   10.2291   -0.0000 </r>
       <r>   10.6243   -0.0000 </r>
       <r>   11.9458   -0.0000 </r>
       <r>   11.9840   -0.0000 </r>
       <r>   12.4698   -0.0000 </r>
       <r>   12.5916   -0.0000 </r>
       <r>   12.6486   -0.0000 </r>
       <r>   12.6649   -0.0000 </r>
       <r>   12.6965   -0.0000 </r>
       <r>   12.9093   -0.0000 </r>
       <r>   12.9632   -0.0000 </r>
       <r>   12.9782   -0.0000 </r>
       <r>   12.9943   -0.0000 </r>
       <r>   13.0062   -0.0000 </r>
       <r>   13.0542   -0.0000 </r>
       <r>   13.0736   -0.0000 </r>
       <r>   13.1104   -0.0000 </r>
       <r>   13.1266   -0.0000 </r>
       <r>   13.1396   -0.0000 </r>
       <r>   13.2074   -0.0000 </r>
       <r>   13.4851   -0.0000 </r>
       <r>   13.6001   -0.0000 </r>
       <r>   13.6090   -0.0000 </r>
       <r>   13.6207   -0.0000 </r>
       <r>   13.6653    0.0000 </r>
       <r>   13.6834    0.0000 </r>
       <r>   13.6934    0.0000 </r>
       <r>   13.7037    0.0000 </r>
       <r>   13.7430    0.0000 </r>
       <r>   13.9119    0.0000 </r>
       <r>   13.9663    0.0000 </r>
       <r>   13.9934    0.0000 </r>
       <r>   14.0227    0.0000 </r>
       <r>   14.4697    0.0000 </r>
       <r>   14.7738    0.0000 </r>
       <r>   14.8261    0.0000 </r>
       <r>   14.8618    0.0000 </r>
       <r>   14.8810    0.0000 </r>
      </set>
      <set comment="kpoint 5">
       <r>   -6.9847    1.0000 </r>
       <r>   -6.4862    1.0000 </r>
       <r>   -6.4212    1.0000 </r>
       <r>   -5.9410    1.0000 </r>
       <r>   -5.4629    1.0000 </r>
       <r>   -5.4097    1.0000 </r>
       <r>   -5.0522    1.0000 </r>
       <r>   -4.9699    1.0000 </r>
       <r>   -4.9270    1.0000 </r>
       <r>   -4.9127    1.0000 </r>
       <r>   -4.5719    1.0000 </r>
       <r>   -4.5271    1.0000 </r>
       <r>   -4.4547    1.0000 </r>
       <r>   -4.4028    1.0000 </r>
       <r>   -4.0269    1.0000 </r>
       <r>   -3.9962    1.0000 </r>
       <r>   -3.5665    1.0000 </r>
       <r>   -3.5059    1.0000 </r>
       <r>   -3.4551    1.0000 </r>
       <r>   -3.3828    1.0000 </r>
       <r>   -3.3414    1.0000 </r>
       <r>   -3.3341    1.0000 </r>
       <r>   -3.1492    1.0000 </r>
       <r>   -3.1105    1.0000 </r>
       <r>   -2.8824    1.0000 </r>
       <r>   -2.8259    1.0000 </r>
       <r>   -2.7448    1.0000 </r>
       <r>   -2.7215    1.0000 </r>
       <r>   -2.6998    1.0000 </r>
       <r>   -2.3556    1.0000 </r>
       <r>   -2.2832    1.0000 </r>
       <r>   -2.2512    1.0000 </r>
       <r>   -0.2031    1.0000 </r>
       <r>   -0.1396    1.0000 </r>
       <r>    0.4623    1.0000 </r>
       <r>    0.4747    1.0000 </r>
       <r>    0.5538    1.0000 </r>
       <r>    0.5824    1.0000 </r>
       <r>    0.5949    1.0000 </r>
       <r>    0.6550    1.0000 </r>
       <r>    0.6965    1.0000 </r>
       <r>    0.7797    1.0000 </r>
       <r>    0.8040    1.0000 </r>
       <r>    0.8180    1.0000 </r>
       <r>    0.8715    1.0000 </r>
       <r>    0.9875    1.0000 </r>
       <r>    1.1769    1.0000 </r>
       <r>    1.2193    1.0000 </r>
       <r>    1.2624    1.0000 </r>
       <r>    1.2981    1.0000 </r>
       <r>    1.9898    1.0000 </r>
       <r>    2.0320    1.0000 </r>
       <r>    2.0387    1.0000 </r>
       <r>    2.0741    1.0000 </r>
       <r>    2.0889    1.0000 </r>
       <r>    2.1314    1.0000 </r>
       <r>    2.4104    1.0000 </r>
       <r>    2.5572    1.0000 </r>
       <r>    2.5955    1.0000 </r>
       <r>    2.6497    1.0000 </r>
       <r>    2.7378    1.0000 </r>
       <r>    3.1931    1.0000 </r>
       <r>    3.2548    1.0000 </r>
       <r>    3.2642    1.0000 </r>
       <r>    3.3295    1.0000 </r>
       <r>    3.3517    1.0000 </r>
       <r>    3.4909    1.0000 </r>
       <r>    3.5465    1.0000 </r>
       <r>    3.9135    1.0000 </r>
       <r>    3.9204    1.0000 </r>
       <r>    4.0025    1.0000 </r>
       <r>    4.0342    1.0000 </r>
       <r>    4.0662    1.0000 </r>
       <r>    4.0877    1.0000 </r>
       <r>    4.1326    1.0000 </r>
       <r>    4.2780    1.0000 </r>
       <r>    4.3208    1.0000 </r>
       <r>    4.4783    1.0000 </r>
       <r>    4.4861    1.0000 </r>
       <r>    4.6598    1.0000 </r>
       <r>    4.6769    1.0000 </r>
       <r>    4.8541    1.0000 </r>
       <r>    4.8747    1.0000 </r>
       <r>    4.8965    1.0000 </r>
       <r>    4.9173    1.0000 </r>
       <r>    4.9489    1.0000 </r>
       <r>    4.9913    1.0000 </r>
       <r>    5.0982    1.0000 </r>
       <r>    5.2713    1.0000 </r>
       <r>    5.2949    1.0000 </r>
       <r>    5.3922    1.0000 </r>
       <r>    5.4078    1.0000 </r>
       <r>    5.4501    1.0000 </r>
       <r>    5.4725    1.0000 </r>
       <r>    5.5190    1.0000 </r>
       <r>    5.5597    1.0000 </r>
       <r>    5.5963    1.0000 </r>
       <r>    5.6064    1.0000 </r>
       <r>    5.6361    1.0000 </r>
       <r>    5.6581    1.0000 </r>
       <r>    5.6836    1.0000 </r>
       <r>    5.8412    1.0000 </r>
       <r>    5.9644    1.0000 </r>
       <r>    6.0071    1.0000 </r>
       <r>    6.0386    1.0000 </r>
       <r>    6.0691    1.0000 </r>
       <r>    6.1734    1.0000 </r>
       <r>    6.2148    1.0000 </r>
       <r>    6.2518    1.0000 </r>
       <r>    6.3082    1.0000 </r>
       <r>    6.4003    1.0000 </r>
       <r>    6.4452    1.0000 </r>
       <r>    6.4708    1.0000 </r>
       <r>    6.5300    1.0000 </r>
       <r>    6.5524    1.0000 </r>
       <r>    6.6413    1.0000 </r>
       <r>    6.6624    1.0000 </r>
       <r>    6.7232    1.0000 </r>
       <r>    6.7537    1.0000 </r>
       <r>    6.8174    1.0000 </r>
       <r>    6.8753    1.0000 </r>
       <r>    6.9098    1.0000 </r>
       <r>    6.9477    1.0000 </r>
       <r>    7.3093    1.0000 </r>
       <r>    7.4544    1.0000 </r>
       <r>    7.5495    1.0001 </r>
       <r>    7.6255    1.0005 </r>
       <r>    7.9690    1.0216 </r>
       <r>   10.4136   -0.0000 </r>
       <r>   10.4624   -0.0000 </r>
       <r>   10.5238   -0.0000 </r>
       <r>   11.3167   -0.0000 </r>
       <r>   11.3623   -0.0000 </r>
       <r>   11.6118   -0.0000 </r>
       <r>   11.6925   -0.0000 </r>
       <r>   11.8031   -0.0000 </r>
       <r>   12.1829   -0.0000 </r>
       <r>   12.2053   -0.0000 </r>
       <r>   12.8163   -0.0000 </r>
       <r>   12.8447   -0.0000 </r>
       <r>   12.8784   -0.0000 </r>
       <r>   12.8852   -0.0000 </r>
       <r>   13.0467   -0.0000 </r>
       <r>   13.0707   -0.0000 </r>
       <r>   13.0849   -0.0000 </r>
       <r>   13.1479   -0.0000 </r>
       <r>   13.1874   -0.0000 </r>
       <r>   13.2164   -0.0000 </r>
       <r>   13.2817   -0.0000 </r>
       <r>   13.3179   -0.0000 </r>
       <r>   13.5214   -0.0000 </r>
       <r>   13.5596   -0.0000 </r>
       <r>   13.5792   -0.0000 </r>
       <r>   13.6107   -0.0000 </r>
       <r>   13.6678    0.0000 </r>
       <r>   13.7516    0.0000 </r>
       <r>   13.7683    0.0000 </r>
       <r>   13.8118    0.0000 </r>
       <r>   13.8836    0.0000 </r>
       <r>   13.9349    0.0000 </r>
       <r>   13.9954    0.0000 </r>
       <r>   14.0694    0.0000 </r>
       <r>   14.1262    0.0000 </r>
       <r>   14.6613    0.0000 </r>
       <r>   14.7335    0.0000 </r>
       <r>   14.7513    0.0000 </r>
       <r>   14.9391    0.0000 </r>
       <r>   14.9933    0.0000 </r>
      </set>
      <set comment="kpoint 6">
       <r>   -6.9847    1.0000 </r>
       <r>   -6.4695    1.0000 </r>
       <r>   -6.4393    1.0000 </r>
       <r>   -5.9421    1.0000 </r>
       <r>   -5.4537    1.0000 </r>
       <r>   -5.4239    1.0000 </r>
       <r>   -4.9953    1.0000 </r>
       <r>   -4.9831    1.0000 </r>
       <r>   -4.9530    1.0000 </r>
       <r>   -4.9111    1.0000 </r>
       <r>   -4.5701    1.0000 </r>
       <r>   -4.5424    1.0000 </r>
       <r>   -4.4513    1.0000 </r>
       <r>   -4.4167    1.0000 </r>
       <r>   -4.0191    1.0000 </r>
       <r>   -3.9970    1.0000 </r>
       <r>   -3.5432    1.0000 </r>
       <r>   -3.5181    1.0000 </r>
       <r>   -3.4217    1.0000 </r>
       <r>   -3.4014    1.0000 </r>
       <r>   -3.3687    1.0000 </r>
       <r>   -3.3330    1.0000 </r>
       <r>   -3.1408    1.0000 </r>
       <r>   -3.1169    1.0000 </r>
       <r>   -2.8774    1.0000 </r>
       <r>   -2.8476    1.0000 </r>
       <r>   -2.7484    1.0000 </r>
       <r>   -2.7036    1.0000 </r>
       <r>   -2.6894    1.0000 </r>
       <r>   -2.3413    1.0000 </r>
       <r>   -2.2841    1.0000 </r>
       <r>   -2.2659    1.0000 </r>
       <r>   -0.2031    1.0000 </r>
       <r>   -0.1837    1.0000 </r>
       <r>    0.4752    1.0000 </r>
       <r>    0.5316    1.0000 </r>
       <r>    0.5484    1.0000 </r>
       <r>    0.5803    1.0000 </r>
       <r>    0.6086    1.0000 </r>
       <r>    0.6296    1.0000 </r>
       <r>    0.6660    1.0000 </r>
       <r>    0.7766    1.0000 </r>
       <r>    0.8037    1.0000 </r>
       <r>    0.8461    1.0000 </r>
       <r>    0.8732    1.0000 </r>
       <r>    1.0166    1.0000 </r>
       <r>    1.1911    1.0000 </r>
       <r>    1.2284    1.0000 </r>
       <r>    1.2604    1.0000 </r>
       <r>    1.2968    1.0000 </r>
       <r>    1.9744    1.0000 </r>
       <r>    2.0049    1.0000 </r>
       <r>    2.0397    1.0000 </r>
       <r>    2.0563    1.0000 </r>
       <r>    2.0695    1.0000 </r>
       <r>    2.0936    1.0000 </r>
       <r>    2.4254    1.0000 </r>
       <r>    2.5368    1.0000 </r>
       <r>    2.5762    1.0000 </r>
       <r>    2.6802    1.0000 </r>
       <r>    2.7516    1.0000 </r>
       <r>    3.2302    1.0000 </r>
[...]
      </set>
     </set>
    </set>
   </array>
  </eigenvalues>
  <separator name="orbital magnetization" >
   <v name="MAGDIPOLOUT">      0.00000000      0.00000000      0.00000000</v>
  </separator>
  <dos>
   <i name="efermi">      8.16283226 </i>
   <total>
    <array>
     <dimension dim="1">gridpoints</dimension>
     <dimension dim="2">spin</dimension>
     <field>energy</field>
     <field>total</field>
     <field>integrated</field>
     <set>
      <set comment="spin 1">
       <r>    -9.3408     0.0000     0.0000 </r>
       <r>    -9.2514     0.0000     0.0000 </r>
       <r>    -9.1621     0.0000     0.0000 </r>
       <r>    -9.0727     0.0000     0.0000 </r>
       <r>    -8.9833    -0.0000    -0.0000 </r>
       <r>    -8.8939    -0.0000    -0.0000 </r>
       <r>    -8.8046    -0.0000    -0.0000 </r>
       <r>    -8.7152    -0.0000    -0.0000 </r>
       <r>    -8.6258    -0.0000    -0.0000 </r>
       <r>    -8.5365    -0.0000    -0.0000 </r>
       <r>    -8.4471    -0.0000    -0.0000 </r>
       <r>    -8.3577    -0.0000    -0.0000 </r>
       <r>    -8.2683    -0.0000    -0.0000 </r>
       <r>    -8.1790    -0.0000    -0.0000 </r>
       <r>    -8.0896    -0.0000    -0.0000 </r>
       <r>    -8.0002    -0.0000    -0.0000 </r>
       <r>    -7.9109    -0.0002    -0.0000 </r>
       <r>    -7.8215    -0.0014    -0.0001 </r>
       <r>    -7.7321    -0.0071    -0.0008 </r>
       <r>    -7.6427    -0.0228    -0.0028 </r>
       <r>    -7.5534    -0.0415    -0.0065 </r>
       <r>    -7.4640    -0.0199    -0.0083 </r>
       <r>    -7.3746     0.1442     0.0046 </r>
       <r>    -7.2853     0.6252     0.0605 </r>
       <r>    -7.1959     1.5452     0.1986 </r>
       <r>    -7.1065     2.7981     0.4486 </r>
       <r>    -7.0171     4.0199     0.8079 </r>
       <r>    -6.9278     4.5660     1.2160 </r>
       <r>    -6.8384     4.0876     1.5813 </r>
       <r>    -6.7490     3.1191     1.8600 </r>
       <r>    -6.6597     2.7448     2.1053 </r>
       <r>    -6.5703     4.1123     2.4729 </r>
       <r>    -6.4809     7.1815     3.1147 </r>
       <r>    -6.3915     9.9506     4.0040 </r>
       <r>    -6.3022    10.2829     4.9230 </r>
       <r>    -6.2128     7.6716     5.6086 </r>
       <r>    -6.1234     3.7974     5.9480 </r>
       <r>    -6.0341     1.9328     6.1207 </r>
       <r>    -5.9447     3.6442     6.4464 </r>
       <r>    -5.8553     7.3347     7.1019 </r>
       <r>    -5.7659    10.5149     8.0417 </r>
       <r>    -5.6766    11.7443     9.0913 </r>
       <r>    -5.5872    11.5452    10.1231 </r>
       <r>    -5.4978    11.1456    11.1192 </r>
       <r>    -5.4085    10.0845    12.0205 </r>
       <r>    -5.3191     7.6761    12.7065 </r>
       <r>    -5.2297     6.0700    13.2490 </r>
       <r>    -5.1403     8.3874    13.9986 </r>
       <r>    -5.0510    13.8580    15.2371 </r>
       <r>    -4.9616    17.0423    16.7602 </r>
       <r>    -4.8722    13.4983    17.9665 </r>
       <r>    -4.7829     6.1301    18.5144 </r>
       <r>    -4.6935     2.5438    18.7417 </r>
       <r>    -4.6041     5.8979    19.2688 </r>
       <r>    -4.5147    12.4855    20.3847 </r>
       <r>    -4.4254    17.8154    21.9769 </r>
       <r>    -4.3360    20.0391    23.7678 </r>
       <r>    -4.2466    18.1090    25.3862 </r>
       <r>    -4.1573    14.2074    26.6560 </r>
       <r>    -4.0679    15.2735    28.0210 </r>
       <r>    -3.9785    22.0895    29.9952 </r>
       <r>    -3.8891    24.7154    32.2040 </r>
       <r>    -3.7998    18.4520    33.8531 </r>
       <r>    -3.7104    11.4277    34.8744 </r>
       <r>    -3.6210    10.9195    35.8503 </r>
       <r>    -3.5316    15.7184    37.2551 </r>
       <r>    -3.4423    21.4960    39.1762 </r>
       <r>    -3.3529    23.4242    41.2697 </r>
       <r>    -3.2635    19.7519    43.0349 </r>
       <r>    -3.1742    16.0086    44.4656 </r>
       <r>    -3.0848    16.7091    45.9590 </r>
       <r>    -2.9954    19.7928    47.7279 </r>
       <r>    -2.9060    23.8900    49.8630 </r>
       <r>    -2.8167    28.1966    52.3829 </r>
       <r>    -2.7273    27.8503    54.8720 </r>
       <r>    -2.6379    20.6778    56.7200 </r>
       <r>    -2.5486    12.4134    57.8294 </r>
       <r>    -2.4592     9.4783    58.6765 </r>
       <r>    -2.3698    12.5821    59.8010 </r>
       <r>    -2.2804    16.9818    61.3186 </r>
       <r>    -2.1911    16.4492    62.7887 </r>
       <r>    -2.1017    10.3412    63.7129 </r>
       <r>    -2.0123     3.7701    64.0499 </r>
       <r>    -1.9230     0.3270    64.0791 </r>
       <r>    -1.8336    -0.4619    64.0378 </r>
       <r>    -1.7442    -0.2995    64.0111 </r>
       <r>    -1.6548    -0.0994    64.0022 </r>
       <r>    -1.5655    -0.0210    64.0003 </r>
       <r>    -1.4761    -0.0029    64.0000 </r>
       <r>    -1.3867    -0.0003    64.0000 </r>
       <r>    -1.2974    -0.0000    64.0000 </r>
       <r>    -1.2080    -0.0000    64.0000 </r>
       <r>    -1.1186    -0.0002    64.0000 </r>
       <r>    -1.0292    -0.0017    63.9998 </r>
       <r>    -0.9399    -0.0104    63.9989 </r>
       <r>    -0.8505    -0.0364    63.9956 </r>
       <r>    -0.7611    -0.0551    63.9907 </r>
       <r>    -0.6718     0.0640    63.9964 </r>
       <r>    -0.5824     0.4154    64.0336 </r>
       <r>    -0.4930     0.7018    64.0963 </r>
       <r>    -0.4036     0.7318    64.1617 </r>
       <r>    -0.3143     1.7013    64.3137 </r>
       <r>    -0.2249     5.0993    64.7695 </r>
       <r>    -0.1355     9.4393    65.6131 </r>
       <r>    -0.0462    10.9451    66.5912 </r>
       <r>     0.0432     8.5843    67.3584 </r>
       <r>     0.1326     6.0991    67.9035 </r>
       <r>     0.2220     7.6485    68.5871 </r>
       <r>     0.3113    12.9387    69.7434 </r>
       <r>     0.4007    18.8304    71.4263 </r>
       <r>     0.4901    22.8929    73.4723 </r>
       <r>     0.5794    24.2472    75.6393 </r>
       <r>     0.6688    25.0530    77.8783 </r>
       <r>     0.7582    28.5762    80.4322 </r>
       <r>     0.8476    32.5066    83.3374 </r>
       <r>     0.9369    31.7295    86.1731 </r>
       <r>     1.0263    28.6868    88.7369 </r>
       <r>     1.1157    30.4175    91.4554 </r>
       <r>     1.2050    36.5251    94.7197 </r>
       <r>     1.2944    38.4328    98.1545 </r>
       <r>     1.3838    30.4848   100.8789 </r>
       <r>     1.4732    16.7827   102.3788 </r>
       <r>     1.5625     5.2787   102.8506 </r>
       <r>     1.6519    -0.3231   102.8217 </r>
       <r>     1.7413    -1.1142   102.7221 </r>
       <r>     1.8306     1.3671   102.8443 </r>
       <r>     1.9200     7.9613   103.5558 </r>
       <r>     2.0094    18.4248   105.2025 </r>
       <r>     2.0988    26.1703   107.5414 </r>
       <r>     2.1881    23.9600   109.6827 </r>
       <r>     2.2775    14.4954   110.9782 </r>
       <r>     2.3669     6.7850   111.5846 </r>
       <r>     2.4562     5.5139   112.0774 </r>
       <r>     2.5456     9.8327   112.9561 </r>
       <r>     2.6350    15.8779   114.3752 </r>
       <r>     2.7244    17.8478   115.9702 </r>
       <r>     2.8137    14.4959   117.2658 </r>
       <r>     2.9031    12.4347   118.3771 </r>
       <r>     2.9925    15.7636   119.7859 </r>
       <r>     3.0818    21.0263   121.6650 </r>
       <r>     3.1712    26.2873   124.0144 </r>
       <r>     3.2606    31.7836   126.8549 </r>
       <r>     3.3500    33.3716   129.8374 </r>
       <r>     3.4393    29.6598   132.4881 </r>
       <r>     3.5287    26.2656   134.8355 </r>
       <r>     3.6181    24.2670   137.0043 </r>
       <r>     3.7074    19.5170   138.7486 </r>
       <r>     3.7968    13.4663   139.9521 </r>
       <r>     3.8862    13.1230   141.1249 </r>
       <r>     3.9756    20.1206   142.9231 </r>
       <r>     4.0649    25.5926   145.2104 </r>
       <r>     4.1543    22.4794   147.2194 </r>
       <r>     4.2437    17.9775   148.8260 </r>
       <r>     4.3330    21.9017   150.7834 </r>
       <r>     4.4224    30.8252   153.5383 </r>
       <r>     4.5118    36.2820   156.7809 </r>
       <r>     4.6012    36.5554   160.0479 </r>
       <r>     4.6905    34.2871   163.1122 </r>
       <r>     4.7799    33.4594   166.1025 </r>
       <r>     4.8693    35.6666   169.2901 </r>
       <r>     4.9586    36.2419   172.5291 </r>
       <r>     5.0480    32.6504   175.4471 </r>
       <r>     5.1374    29.5060   178.0841 </r>
       <r>     5.2268    29.6486   180.7339 </r>
       <r>     5.3161    30.5099   183.4606 </r>
       <r>     5.4055    30.7489   186.2087 </r>
       <r>     5.4949    33.8259   189.2317 </r>
       <r>     5.5842    40.5933   192.8596 </r>
       <r>     5.6736    43.5803   196.7545 </r>
       <r>     5.7630    38.9349   200.2341 </r>
       <r>     5.8524    34.2065   203.2912 </r>
       <r>     5.9417    33.5534   206.2899 </r>
       <r>     6.0311    32.0468   209.1540 </r>
       <r>     6.1205    29.0054   211.7463 </r>
       <r>     6.2099    29.4537   214.3786 </r>
       <r>     6.2992    32.8360   217.3132 </r>
       <r>     6.3886    34.8705   220.4296 </r>
       <r>     6.4780    34.3613   223.5005 </r>
       <r>     6.5673    30.5846   226.2339 </r>
       <r>     6.6567    26.0192   228.5593 </r>
       <r>     6.7461    27.7052   231.0354 </r>
       <r>     6.8355    36.4764   234.2953 </r>
       <r>     6.9248    42.9585   238.1346 </r>
       <r>     7.0142    38.2661   241.5545 </r>
       <r>     7.1036    24.9443   243.7838 </r>
       <r>     7.1929    13.8550   245.0221 </r>
       <r>     7.2823    11.3896   246.0400 </r>
       <r>     7.3717    15.0284   247.3831 </r>
       <r>     7.4611    19.5068   249.1264 </r>
       <r>     7.5504    21.3626   251.0356 </r>
       <r>     7.6398    19.4334   252.7724 </r>
       <r>     7.7292    14.3985   254.0592 </r>
       <r>     7.8185     8.4692   254.8162 </r>
       <r>     7.9079     4.7504   255.2407 </r>
       <r>     7.9973     3.8472   255.5845 </r>
       <r>     8.0867     3.1932   255.8699 </r>
       <r>     8.1760     1.5820   256.0113 </r>
       <r>     8.2654     0.2261   256.0315 </r>
       <r>     8.3548    -0.1851   256.0150 </r>
       <r>     8.4441    -0.1235   256.0039 </r>
       <r>     8.5335    -0.0366   256.0006 </r>
       <r>     8.6229    -0.0065   256.0001 </r>
       <r>     8.7123    -0.0008   256.0000 </r>
       <r>     8.8016    -0.0009   255.9999 </r>
       <r>     8.8910    -0.0057   255.9994 </r>
       <r>     8.9804    -0.0225   255.9974 </r>
       <r>     9.0697    -0.0419   255.9937 </r>
       <r>     9.1591     0.0246   255.9959 </r>
       <r>     9.2485     0.3011   256.0228 </r>
       <r>     9.3379     0.6628   256.0820 </r>
       <r>     9.4272     0.7659   256.1504 </r>
       <r>     9.5166     0.7476   256.2173 </r>
       <r>     9.6060     1.1666   256.3215 </r>
       <r>     9.6953     1.7356   256.4766 </r>
       <r>     9.7847     1.4952   256.6103 </r>
       <r>     9.8741     0.5248   256.6572 </r>
       <r>     9.9635    -0.1126   256.6471 </r>
       <r>    10.0528     0.3510   256.6785 </r>
       <r>    10.1422     1.8046   256.8398 </r>
       <r>    10.2316     3.3540   257.1395 </r>
       <r>    10.3209     5.0153   257.5877 </r>
       <r>    10.4103     7.8233   258.2869 </r>
       <r>    10.4997    10.6768   259.2411 </r>
       <r>    10.5891    11.5795   260.2760 </r>
       <r>    10.6784    10.7810   261.2395 </r>
       <r>    10.7678     8.4796   261.9973 </r>
       <r>    10.8572     4.5869   262.4073 </r>
       <r>    10.9465     0.9924   262.4960 </r>
       <r>    11.0359    -0.6484   262.4380 </r>
       <r>    11.1253    -0.4073   262.4016 </r>
       <r>    11.2147     1.6949   262.5531 </r>
       <r>    11.3040     5.0793   263.0070 </r>
       <r>    11.3934     7.6394   263.6898 </r>
       <r>    11.4828     9.0488   264.4985 </r>
       <r>    11.5721    11.0101   265.4825 </r>
       <r>    11.6615    13.0465   266.6485 </r>
       <r>    11.7509    14.6024   267.9535 </r>
       <r>    11.8403    17.4408   269.5122 </r>
       <r>    11.9296    20.7607   271.3676 </r>
       <r>    12.0190    21.2607   273.2677 </r>
       <r>    12.1084    18.6026   274.9303 </r>
       <r>    12.1977    14.2162   276.2008 </r>
       <r>    12.2871     8.5006   276.9605 </r>
       <r>    12.3765     3.6914   277.2904 </r>
       <r>    12.4659     4.1396   277.6604 </r>
       <r>    12.5552    10.8269   278.6280 </r>
       <r>    12.6446    19.2601   280.3493 </r>
       <r>    12.7340    25.1556   282.5975 </r>
       <r>    12.8233    28.5430   285.1484 </r>
       <r>    12.9127    30.2500   287.8519 </r>
       <r>    13.0021    31.4359   290.6614 </r>
       <r>    13.0915    33.8075   293.6828 </r>
       <r>    13.1808    34.0345   296.7245 </r>
       <r>    13.2702    27.1884   299.1544 </r>
       <r>    13.3596    17.0212   300.6756 </r>
       <r>    13.4489    14.0428   301.9306 </r>
       <r>    13.5383    22.3864   303.9314 </r>
       <r>    13.6277    33.1521   306.8942 </r>
       <r>    13.7171    35.4831   310.0654 </r>
       <r>    13.8064    30.1821   312.7628 </r>
       <r>    13.8958    26.4086   315.1230 </r>
       <r>    13.9852    28.6541   317.6839 </r>
       <r>    14.0745    32.0359   320.5470 </r>
       <r>    14.1639    29.9981   323.2279 </r>
       <r>    14.2533    21.7016   325.1674 </r>
       <r>    14.3427    11.2508   326.1729 </r>
       <r>    14.4320     3.7747   326.5103 </r>
       <r>    14.5214     2.6803   326.7498 </r>
       <r>    14.6108     8.5007   327.5096 </r>
       <r>    14.7001    17.2789   329.0538 </r>
       <r>    14.7895    21.8797   331.0092 </r>
       <r>    14.8789    19.5776   332.7589 </r>
       <r>    14.9683    13.7036   333.9836 </r>
       <r>    15.0576     7.3901   334.6441 </r>
       <r>    15.1470     2.3372   334.8530 </r>
       <r>    15.2364     0.3243   334.8819 </r>
       <r>    15.3257     1.6455   335.0290 </r>
       <r>    15.4151     3.9881   335.3854 </r>
       <r>    15.5045     4.3517   335.7743 </r>
       <r>    15.5939     2.4426   335.9926 </r>
       <r>    15.6832     0.5011   336.0374 </r>
       <r>    15.7726    -0.1961   336.0199 </r>
       <r>    15.8620    -0.1626   336.0054 </r>
       <r>    15.9513    -0.0502   336.0009 </r>
       <r>    16.0407    -0.0088   336.0001 </r>
       <r>    16.1301    -0.0010   336.0000 </r>
       <r>    16.2195    -0.0001   336.0000 </r>
       <r>    16.3088    -0.0000   336.0000 </r>
       <r>    16.3982    -0.0000   336.0000 </r>
       <r>    16.4876    -0.0000   336.0000 </r>
       <r>    16.5770    -0.0000   336.0000 </r>
       <r>    16.6663    -0.0000   336.0000 </r>
       <r>    16.7557    -0.0000   336.0000 </r>
       <r>    16.8451     0.0000   336.0000 </r>
       <r>    16.9344     0.0000   336.0000 </r>
       <r>    17.0238     0.0000   336.0000 </r>
       <r>    17.1132     0.0000   336.0000 </r>
       <r>    17.2026     0.0000   336.0000 </r>
       <r>    17.2919     0.0000   336.0000 </r>
       <r>    17.3813     0.0000   336.0000 </r>
       <r>    17.4707     0.0000   336.0000 </r>
      </set>
     </set>
    </array>
   </total>
  </dos>
 </calculation>
 <structure name="finalpos" >
  <crystal>
   <varray name="basis" >
    <v>       8.74331558       0.00000000       0.00000000 </v>
    <v>       0.00000000       8.74331558       0.00000000 </v>
    <v>       0.00000000       0.00000000       8.74331558 </v>
   </varray>
   <i name="volume">    668.38771987 </i>
   <varray name="rec_basis" >
    <v>       0.11437309       0.00000000       0.00000000 </v>
    <v>       0.00000000       0.11437309       0.00000000 </v>
    <v>       0.00000000       0.00000000       0.11437309 </v>
   </varray>
  </crystal>
  <varray name="positions" >
   <v>       0.12912136       0.12946794       0.11954675 </v>
   <v>       0.12261219       0.37396578       0.37622105 </v>
   <v>       0.37676319       0.12721761       0.37616967 </v>
   <v>       0.37453619       0.37646376       0.12346451 </v>
   <v>       0.12056793       0.12406144       0.62778410 </v>
   <v>       0.13129271       0.37333073       0.87210972 </v>
   <v>       0.37574765       0.12562553       0.87459342 </v>
   <v>       0.37679242       0.37170446       0.62493343 </v>
   <v>       0.12542730       0.62445165       0.12644112 </v>
   <v>       0.12413944       0.87323271       0.37450529 </v>
   <v>       0.37585190       0.62325360       0.37392996 </v>
   <v>       0.37425693       0.87644282       0.12574020 </v>
   <v>       0.12958835       0.62863402       0.62375818 </v>
   <v>       0.12944029       0.87642388       0.87769653 </v>
   <v>       0.37675576       0.62304673       0.87644585 </v>
   <v>       0.37315330       0.87268808       0.62938991 </v>
   <v>       0.63021788       0.12781552       0.12492148 </v>
   <v>       0.62254226       0.37617472       0.37392895 </v>
   <v>       0.87493934       0.12704045       0.37771366 </v>
   <v>       0.87600404       0.37353196       0.12551416 </v>
   <v>       0.62456369       0.12671028       0.62440077 </v>
   <v>       0.62387979       0.37226022       0.87390455 </v>
   <v>       0.87786536       0.12192241       0.87355275 </v>
   <v>       0.87153328       0.36910148       0.62508677 </v>
   <v>       0.62685624       0.62587138       0.12453132 </v>
   <v>       0.62252424       0.87208005       0.37653745 </v>
   <v>       0.87980387       0.62345346       0.37627595 </v>
   <v>       0.87286990       0.87204348       0.12365843 </v>
   <v>       0.62499668       0.62746092       0.62934854 </v>
   <v>       0.62166007       0.87704855       0.87755728 </v>
   <v>       0.87322256       0.62299548       0.87504970 </v>
   <v>       0.87428042       0.87816762       0.62227950 </v>
   <v>       0.99794048       0.00317487       0.00134131 </v>
   <v>       0.99989747       0.24694860       0.24798169 </v>
   <v>       0.24870901       0.00028302       0.25206753 </v>
   <v>       0.24922639       0.24561000       0.99626133 </v>
   <v>       0.00147254       0.99762546       0.50156414 </v>
   <v>       0.00053158       0.24804117       0.74629859 </v>
   <v>       0.24792071       0.99976118       0.75305334 </v>
   <v>       0.24817000       0.25145964       0.49778707 </v>
   <v>       0.99884414       0.50232002       0.99987306 </v>
   <v>       0.99722877       0.74578485       0.25014921 </v>
   <v>       0.24841357       0.50041804       0.24986247 </v>
   <v>       0.25130530       0.74950421       0.99919189 </v>
   <v>       0.99990184       0.49740258       0.50046885 </v>
   <v>       0.99244711       0.74944951       0.74772621 </v>
   <v>       0.25245330       0.50120244       0.75184148 </v>
   <v>       0.25081081       0.75159464       0.50002074 </v>
   <v>       0.49928025       0.99855244       0.99734330 </v>
   <v>       0.50047526       0.25180677       0.25242701 </v>
   <v>       0.74704639       0.00276199       0.24777658 </v>
   <v>       0.75071641       0.25103861       0.00201376 </v>
   <v>       0.49830889       0.99958869       0.50001588 </v>
   <v>       0.49811067       0.25072996       0.75085132 </v>
   <v>       0.74522354       0.99846349       0.75137623 </v>
   <v>       0.74882066       0.25390418       0.50155621 </v>
   <v>       0.50172095       0.49979047       0.99978403 </v>
   <v>       0.50243094       0.75010998       0.24865184 </v>
   <v>       0.74698756       0.50272532       0.25060132 </v>
   <v>       0.75302984       0.74829083       0.00094008 </v>
   <v>       0.49944400       0.50089399       0.50027776 </v>
   <v>       0.49430502       0.74798232       0.75094532 </v>
   <v>       0.74520715       0.49874564       0.75523257 </v>
   <v>       0.75292977       0.75254890       0.49730935 </v>
  </varray>
 </structure>
</modeling>
