unknown system                          
           1
     8.743316    0.000000    0.000000
     0.000000    8.743316    0.000000
     0.000000    0.000000    8.743316
   C    Si
    32    32
Direct configuration=     1
   0.12912136  0.12946794  0.11954675
   0.12261219  0.37396578  0.37622105
   0.37676319  0.12721761  0.37616967
   0.37453619  0.37646376  0.12346451
   0.12056793  0.12406144  0.62778410
   0.13129271  0.37333073  0.87210972
   0.37574765  0.12562553  0.87459342
   0.37679242  0.37170446  0.62493343
   0.12542730  0.62445165  0.12644112
   0.12413944  0.87323271  0.37450529
   0.37585190  0.62325360  0.37392996
   0.37425693  0.87644282  0.12574020
   0.12958835  0.62863402  0.62375818
   0.12944029  0.87642388  0.87769653
   0.37675576  0.62304673  0.87644585
   0.37315330  0.87268808  0.62938991
   0.63021788  0.12781552  0.12492148
   0.62254226  0.37617472  0.37392895
   0.87493934  0.12704045  0.37771366
   0.87600404  0.37353196  0.12551416
   0.62456369  0.12671028  0.62440077
   0.62387979  0.37226022  0.87390455
   0.87786536  0.12192241  0.87355275
   0.87153328  0.36910148  0.62508677
   0.62685624  0.62587138  0.12453132
   0.62252424  0.87208005  0.37653745
   0.87980387  0.62345346  0.37627595
   0.87286990  0.87204348  0.12365843
   0.62499668  0.62746092  0.62934854
   0.62166007  0.87704855  0.87755728
   0.87322256  0.62299548  0.87504970
   0.87428042  0.87816762  0.62227950
   0.99794048  0.00317487  0.00134131
   0.99989747  0.24694860  0.24798169
   0.24870901  0.00028302  0.25206753
   0.24922639  0.24561000  0.99626133
   0.00147254  0.99762546  0.50156414
   0.00053158  0.24804117  0.74629859
   0.24792071  0.99976118  0.75305334
   0.24817000  0.25145964  0.49778707
   0.99884414  0.50232002  0.99987306
   0.99722877  0.74578485  0.25014921
   0.24841357  0.50041804  0.24986247
   0.25130530  0.74950421  0.99919189
   0.99990184  0.49740258  0.50046885
   0.99244711  0.74944951  0.74772621
   0.25245330  0.50120244  0.75184148
   0.25081081  0.75159464  0.50002074
   0.49928025  0.99855244  0.99734330
   0.50047526  0.25180677  0.25242701
   0.74704639  0.00276199  0.24777658
   0.75071641  0.25103861  0.00201376
   0.49830889  0.99958869  0.50001588
   0.49811067  0.25072996  0.75085132
   0.74522354  0.99846349  0.75137623
   0.74882066  0.25390418  0.50155621
   0.50172095  0.49979047  0.99978403
   0.50243094  0.75010998  0.24865184
   0.74698756  0.50272532  0.25060132
   0.75302984  0.74829083  0.00094008
   0.49944400  0.50089399  0.50027776
   0.49430502  0.74798232  0.75094532
   0.74520715  0.49874564  0.75523257
   0.75292977  0.75254890  0.49730935
